<?xml version="1.0" encoding="UTF-8"?>

<!-- generated on 01/21/20 12:26:32 by Eclipse SUMO Version 1.3.1
<configuration xmlns:xsi="http://www.w3.org/2001/XMLSchema-instance" xsi:noNamespaceSchemaLocation="http://sumo.dlr.de/xsd/sumoConfiguration.xsd">

    <input>
        <net-file value="Data/Cross_3_3.net.xml"/>
        <route-files value="Data/Cross12.rou.xml"/>
        <additional-files value="Data/rerouter.xml,Data/trafficLight.add.xml"/>
    </input>

    <output>
        <tripinfo-output value="tripinfo.xml"/>
    </output>

    <report>
        <log value="logfile.txt"/>
    </report>

    <traci_server>
        <remote-port value="54894"/>
    </traci_server>

</configuration>
-->

<tripinfos xmlns:xsi="http://www.w3.org/2001/XMLSchema-instance" xsi:noNamespaceSchemaLocation="http://sumo.dlr.de/xsd/tripinfo_file.xsd">
    <tripinfo id="3" depart="2.00" departLane="2SN1_0" departPos="5.10" departSpeed="0.00" departDelay="0.00" arrival="49.00" arrivalLane="3OW3_0" arrivalPos="92.00" arrivalSpeed="14.89" duration="47.00" routeLength="489.86" waitingTime="0.00" waitingCount="0" stopTime="0.00" timeLoss="13.89" rerouteNo="1" devices="tripinfo_3" vType="Cartype" speedFactor="1.08" vaporized=""/>
    <tripinfo id="10" depart="8.00" departLane="2SN1_0" departPos="5.10" departSpeed="0.00" departDelay="0.00" arrival="107.00" arrivalLane="3WO4_0" arrivalPos="196.00" arrivalSpeed="14.85" duration="99.00" routeLength="886.92" waitingTime="13.00" waitingCount="1" stopTime="0.00" timeLoss="39.81" rerouteNo="2" devices="tripinfo_10" vType="Cartype" speedFactor="1.09" vaporized=""/>
    <tripinfo id="26" depart="28.00" departLane="2WO1_0" departPos="5.10" departSpeed="0.00" departDelay="4.00" arrival="114.00" arrivalLane="1SN4_0" arrivalPos="196.00" arrivalSpeed="12.35" duration="86.00" routeLength="894.55" waitingTime="0.00" waitingCount="0" stopTime="0.00" timeLoss="14.81" rerouteNo="2" devices="tripinfo_26" vType="Cartype" speedFactor="0.92" vaporized=""/>
    <tripinfo id="16" depart="18.00" departLane="2SN1_0" departPos="5.10" departSpeed="0.00" departDelay="7.00" arrival="122.00" arrivalLane="3NS4_0" arrivalPos="196.00" arrivalSpeed="12.11" duration="104.00" routeLength="877.56" waitingTime="6.00" waitingCount="1" stopTime="0.00" timeLoss="30.13" rerouteNo="2" devices="tripinfo_16" vType="Cartype" speedFactor="0.88" vaporized=""/>
    <tripinfo id="0" depart="0.00" departLane="2NS1_0" departPos="5.10" departSpeed="0.00" departDelay="0.00" arrival="125.00" arrivalLane="1WO4_0" arrivalPos="196.00" arrivalSpeed="14.62" duration="125.00" routeLength="894.55" waitingTime="35.00" waitingCount="1" stopTime="0.00" timeLoss="62.94" rerouteNo="2" devices="tripinfo_0" vType="Cartype" speedFactor="1.06" vaporized=""/>
    <tripinfo id="1" depart="0.00" departLane="2OW1_0" departPos="5.10" departSpeed="0.00" departDelay="0.00" arrival="126.00" arrivalLane="3OW3_0" arrivalPos="92.00" arrivalSpeed="12.97" duration="126.00" routeLength="1081.88" waitingTime="13.00" waitingCount="1" stopTime="0.00" timeLoss="41.81" rerouteNo="3" devices="tripinfo_1" vType="Cartype" speedFactor="0.94" vaporized=""/>
    <tripinfo id="15" depart="18.00" departLane="2WO1_0" departPos="5.10" departSpeed="0.00" departDelay="8.00" arrival="126.00" arrivalLane="1NS4_0" arrivalPos="196.00" arrivalSpeed="12.56" duration="108.00" routeLength="886.92" waitingTime="6.00" waitingCount="1" stopTime="0.00" timeLoss="37.42" rerouteNo="2" devices="tripinfo_15" vType="Cartype" speedFactor="0.93" vaporized=""/>
    <tripinfo id="2" depart="5.00" departLane="2NS1_0" departPos="5.10" departSpeed="0.00" departDelay="3.00" arrival="127.00" arrivalLane="1WO4_0" arrivalPos="196.00" arrivalSpeed="13.84" duration="122.00" routeLength="894.55" waitingTime="32.00" waitingCount="1" stopTime="0.00" timeLoss="57.05" rerouteNo="2" devices="tripinfo_2" vType="Cartype" speedFactor="1.01" vaporized=""/>
    <tripinfo id="30" depart="38.00" departLane="2WO1_0" departPos="5.10" departSpeed="0.00" departDelay="11.00" arrival="127.00" arrivalLane="1NS4_0" arrivalPos="196.00" arrivalSpeed="13.34" duration="89.00" routeLength="886.92" waitingTime="0.00" waitingCount="0" stopTime="0.00" timeLoss="34.09" rerouteNo="2" devices="tripinfo_30" vType="Cartype" speedFactor="1.18" vaporized=""/>
    <tripinfo id="27" depart="30.00" departLane="2NS1_0" departPos="5.10" departSpeed="0.00" departDelay="5.00" arrival="133.00" arrivalLane="1WO4_0" arrivalPos="196.00" arrivalSpeed="13.02" duration="103.00" routeLength="894.55" waitingTime="6.00" waitingCount="1" stopTime="0.00" timeLoss="34.18" rerouteNo="2" devices="tripinfo_27" vType="Cartype" speedFactor="0.95" vaporized=""/>
    <tripinfo id="19" depart="25.00" departLane="2NS1_0" departPos="5.10" departSpeed="0.00" departDelay="11.00" arrival="139.00" arrivalLane="1SN4_0" arrivalPos="196.00" arrivalSpeed="15.98" duration="114.00" routeLength="877.56" waitingTime="15.00" waitingCount="2" stopTime="0.00" timeLoss="57.85" rerouteNo="2" devices="tripinfo_19" vType="Cartype" speedFactor="1.16" vaporized=""/>
    <tripinfo id="8" depart="15.00" departLane="2NS1_0" departPos="5.10" departSpeed="0.00" departDelay="10.00" arrival="140.00" arrivalLane="1OW4_0" arrivalPos="196.00" arrivalSpeed="13.03" duration="125.00" routeLength="886.92" waitingTime="22.00" waitingCount="2" stopTime="0.00" timeLoss="55.36" rerouteNo="2" devices="tripinfo_8" vType="Cartype" speedFactor="0.94" vaporized=""/>
    <tripinfo id="11" depart="15.00" departLane="2OW1_0" departPos="5.10" departSpeed="0.00" departDelay="7.00" arrival="141.00" arrivalLane="3NS4_0" arrivalPos="196.00" arrivalSpeed="14.09" duration="126.00" routeLength="894.55" waitingTime="35.00" waitingCount="1" stopTime="0.00" timeLoss="61.96" rerouteNo="2" devices="tripinfo_11" vType="Cartype" speedFactor="1.03" vaporized=""/>
    <tripinfo id="70" depart="56.00" departLane="2OW1_0" departPos="5.10" departSpeed="0.00" departDelay="2.00" arrival="145.00" arrivalLane="3NS4_0" arrivalPos="196.00" arrivalSpeed="14.03" duration="89.00" routeLength="894.55" waitingTime="0.00" waitingCount="0" stopTime="0.00" timeLoss="24.87" rerouteNo="2" devices="tripinfo_70" vType="Cartype" speedFactor="1.02" vaporized=""/>
    <tripinfo id="28" depart="33.00" departLane="2WO1_0" departPos="5.10" departSpeed="0.00" departDelay="8.00" arrival="152.00" arrivalLane="2WO4_0" arrivalPos="196.00" arrivalSpeed="15.69" duration="119.00" routeLength="1196.97" waitingTime="10.00" waitingCount="1" stopTime="0.00" timeLoss="42.76" rerouteNo="3" devices="tripinfo_28" vType="Cartype" speedFactor="1.13" vaporized=""/>
    <tripinfo id="9" depart="8.00" departLane="2WO1_0" departPos="5.10" departSpeed="0.00" departDelay="1.00" arrival="153.00" arrivalLane="2SN4_0" arrivalPos="196.00" arrivalSpeed="11.61" duration="145.00" routeLength="1195.24" waitingTime="9.00" waitingCount="2" stopTime="0.00" timeLoss="43.52" rerouteNo="3" devices="tripinfo_9" vType="Cartype" speedFactor="0.86" vaporized=""/>
    <tripinfo id="22" depart="25.00" departLane="2OW1_0" departPos="5.10" departSpeed="0.00" departDelay="6.00" arrival="153.00" arrivalLane="1WO4_0" arrivalPos="196.00" arrivalSpeed="13.31" duration="128.00" routeLength="877.56" waitingTime="24.00" waitingCount="2" stopTime="0.00" timeLoss="61.13" rerouteNo="2" devices="tripinfo_22" vType="Cartype" speedFactor="0.98" vaporized=""/>
    <tripinfo id="13" depart="13.00" departLane="2SN1_0" departPos="5.10" departSpeed="0.00" departDelay="4.00" arrival="159.00" arrivalLane="2WO4_0" arrivalPos="196.00" arrivalSpeed="15.50" duration="146.00" routeLength="1187.61" waitingTime="28.00" waitingCount="2" stopTime="0.00" timeLoss="68.75" rerouteNo="3" devices="tripinfo_13" vType="Cartype" speedFactor="1.12" vaporized=""/>
    <tripinfo id="45" depart="48.00" departLane="2WO1_0" departPos="5.10" departSpeed="0.00" departDelay="13.00" arrival="166.00" arrivalLane="1SN4_0" arrivalPos="196.00" arrivalSpeed="14.98" duration="118.00" routeLength="894.55" waitingTime="24.00" waitingCount="1" stopTime="0.00" timeLoss="57.56" rerouteNo="2" devices="tripinfo_45" vType="Cartype" speedFactor="1.09" vaporized=""/>
    <tripinfo id="17" depart="23.00" departLane="2SN1_0" departPos="5.10" departSpeed="0.00" departDelay="12.00" arrival="169.00" arrivalLane="3WO4_0" arrivalPos="196.00" arrivalSpeed="12.85" duration="146.00" routeLength="886.92" waitingTime="41.00" waitingCount="2" stopTime="0.00" timeLoss="76.95" rerouteNo="2" devices="tripinfo_17" vType="Cartype" speedFactor="0.94" vaporized=""/>
    <tripinfo id="38" depart="58.00" departLane="2SN1_0" departPos="5.10" departSpeed="0.00" departDelay="26.00" arrival="170.00" arrivalLane="3NS4_0" arrivalPos="196.00" arrivalSpeed="15.16" duration="112.00" routeLength="877.56" waitingTime="19.00" waitingCount="1" stopTime="0.00" timeLoss="52.51" rerouteNo="2" devices="tripinfo_38" vType="Cartype" speedFactor="1.10" vaporized=""/>
    <tripinfo id="69" depart="68.00" departLane="2WO1_0" departPos="5.10" departSpeed="0.00" departDelay="14.00" arrival="170.00" arrivalLane="1SN4_0" arrivalPos="196.00" arrivalSpeed="14.04" duration="102.00" routeLength="894.55" waitingTime="2.00" waitingCount="1" stopTime="0.00" timeLoss="38.27" rerouteNo="2" devices="tripinfo_69" vType="Cartype" speedFactor="1.02" vaporized=""/>
    <tripinfo id="23" depart="33.00" departLane="2SN1_0" departPos="5.10" departSpeed="0.00" departDelay="11.00" arrival="171.00" arrivalLane="2SN4_0" arrivalPos="196.00" arrivalSpeed="11.97" duration="138.00" routeLength="1196.97" waitingTime="8.00" waitingCount="1" stopTime="0.00" timeLoss="40.62" rerouteNo="3" devices="tripinfo_23" vType="Cartype" speedFactor="0.89" vaporized=""/>
    <tripinfo id="31" depart="48.00" departLane="2SN1_0" departPos="5.10" departSpeed="0.00" departDelay="20.00" arrival="171.00" arrivalLane="3WO4_0" arrivalPos="196.00" arrivalSpeed="14.13" duration="123.00" routeLength="886.92" waitingTime="32.00" waitingCount="1" stopTime="0.00" timeLoss="66.42" rerouteNo="2" devices="tripinfo_31" vType="Cartype" speedFactor="1.15" vaporized=""/>
    <tripinfo id="52" depart="78.00" departLane="2SN1_0" departPos="5.10" departSpeed="0.00" departDelay="35.00" arrival="173.00" arrivalLane="3WO4_0" arrivalPos="196.00" arrivalSpeed="14.03" duration="95.00" routeLength="886.92" waitingTime="3.00" waitingCount="1" stopTime="0.00" timeLoss="30.82" rerouteNo="2" devices="tripinfo_52" vType="Cartype" speedFactor="1.02" vaporized=""/>
    <tripinfo id="76" depart="73.00" departLane="2WO1_0" departPos="5.10" departSpeed="0.00" departDelay="14.00" arrival="173.00" arrivalLane="1SN4_0" arrivalPos="196.00" arrivalSpeed="14.07" duration="100.00" routeLength="894.55" waitingTime="0.00" waitingCount="0" stopTime="0.00" timeLoss="36.09" rerouteNo="2" devices="tripinfo_76" vType="Cartype" speedFactor="1.03" vaporized=""/>
    <tripinfo id="82" depart="84.00" departLane="2WO1_0" departPos="5.10" departSpeed="0.00" departDelay="20.00" arrival="182.00" arrivalLane="1NS4_0" arrivalPos="196.00" arrivalSpeed="13.92" duration="98.00" routeLength="886.92" waitingTime="5.00" waitingCount="1" stopTime="0.00" timeLoss="34.19" rerouteNo="2" devices="tripinfo_82" vType="Cartype" speedFactor="1.02" vaporized=""/>
    <tripinfo id="12" depart="20.00" departLane="2NS1_0" departPos="5.10" departSpeed="0.00" departDelay="11.00" arrival="185.00" arrivalLane="1NS4_0" arrivalPos="196.00" arrivalSpeed="14.20" duration="165.00" routeLength="1486.86" waitingTime="18.00" waitingCount="2" stopTime="0.00" timeLoss="60.70" rerouteNo="4" devices="tripinfo_12" vType="Cartype" speedFactor="1.05" vaporized=""/>
    <tripinfo id="48" depart="72.00" departLane="2NS1_0" departPos="5.10" departSpeed="0.00" departDelay="33.00" arrival="186.00" arrivalLane="1WO4_0" arrivalPos="196.00" arrivalSpeed="11.83" duration="114.00" routeLength="894.55" waitingTime="12.00" waitingCount="2" stopTime="0.00" timeLoss="39.61" rerouteNo="2" devices="tripinfo_48" vType="Cartype" speedFactor="0.88" vaporized=""/>
    <tripinfo id="66" depart="98.00" departLane="2NS1_0" departPos="5.10" departSpeed="0.00" departDelay="45.00" arrival="188.00" arrivalLane="1WO4_0" arrivalPos="196.00" arrivalSpeed="12.56" duration="90.00" routeLength="894.55" waitingTime="0.00" waitingCount="0" stopTime="0.00" timeLoss="17.69" rerouteNo="2" devices="tripinfo_66" vType="Cartype" speedFactor="0.91" vaporized=""/>
    <tripinfo id="112" depart="101.00" departLane="2OW1_0" departPos="5.10" departSpeed="0.00" departDelay="8.00" arrival="189.00" arrivalLane="3WO4_0" arrivalPos="196.00" arrivalSpeed="15.26" duration="88.00" routeLength="892.82" waitingTime="0.00" waitingCount="0" stopTime="0.00" timeLoss="27.58" rerouteNo="2" devices="tripinfo_112" vType="Cartype" speedFactor="1.10" vaporized=""/>
    <tripinfo id="51" depart="77.00" departLane="2NS1_0" departPos="5.10" departSpeed="0.00" departDelay="35.00" arrival="193.00" arrivalLane="1OW4_0" arrivalPos="196.00" arrivalSpeed="15.94" duration="116.00" routeLength="886.92" waitingTime="17.00" waitingCount="2" stopTime="0.00" timeLoss="60.80" rerouteNo="2" devices="tripinfo_51" vType="Cartype" speedFactor="1.17" vaporized=""/>
    <tripinfo id="60" depart="93.00" departLane="2NS1_0" departPos="5.10" departSpeed="0.00" departDelay="42.00" arrival="196.00" arrivalLane="1OW4_0" arrivalPos="196.00" arrivalSpeed="14.89" duration="103.00" routeLength="886.92" waitingTime="3.00" waitingCount="1" stopTime="0.00" timeLoss="42.66" rerouteNo="2" devices="tripinfo_60" vType="Cartype" speedFactor="1.08" vaporized=""/>
    <tripinfo id="47" depart="53.00" departLane="2WO1_0" departPos="5.10" departSpeed="0.00" departDelay="16.00" arrival="197.00" arrivalLane="2SN4_0" arrivalPos="196.00" arrivalSpeed="12.20" duration="144.00" routeLength="1184.15" waitingTime="15.00" waitingCount="1" stopTime="0.00" timeLoss="47.04" rerouteNo="3" devices="tripinfo_47" vType="Cartype" speedFactor="0.90" vaporized=""/>
    <tripinfo id="29" depart="43.00" departLane="2SN1_0" departPos="5.10" departSpeed="0.00" departDelay="17.00" arrival="198.00" arrivalLane="3NS4_0" arrivalPos="196.00" arrivalSpeed="12.66" duration="155.00" routeLength="1478.94" waitingTime="7.00" waitingCount="1" stopTime="0.00" timeLoss="38.12" rerouteNo="4" devices="tripinfo_29" vType="Cartype" speedFactor="0.93" vaporized=""/>
    <tripinfo id="68" depart="108.00" departLane="2NS1_0" departPos="5.10" departSpeed="0.00" departDelay="54.00" arrival="198.00" arrivalLane="1OW4_0" arrivalPos="196.00" arrivalSpeed="14.25" duration="90.00" routeLength="886.92" waitingTime="0.00" waitingCount="0" stopTime="0.00" timeLoss="27.68" rerouteNo="2" devices="tripinfo_68" vType="Cartype" speedFactor="1.04" vaporized=""/>
    <tripinfo id="50" depart="45.00" departLane="2OW1_0" departPos="5.10" departSpeed="0.00" departDelay="5.00" arrival="199.00" arrivalLane="2NS4_0" arrivalPos="196.00" arrivalSpeed="11.76" duration="154.00" routeLength="1184.15" waitingTime="11.00" waitingCount="2" stopTime="0.00" timeLoss="51.06" rerouteNo="3" devices="tripinfo_50" vType="Cartype" speedFactor="0.85" vaporized=""/>
    <tripinfo id="40" depart="51.00" departLane="2NS1_0" departPos="5.10" departSpeed="0.00" departDelay="17.00" arrival="200.00" arrivalLane="2NS4_0" arrivalPos="196.00" arrivalSpeed="13.30" duration="149.00" routeLength="1196.97" waitingTime="20.00" waitingCount="2" stopTime="0.00" timeLoss="65.12" rerouteNo="3" devices="tripinfo_40" vType="Cartype" speedFactor="1.03" vaporized=""/>
    <tripinfo id="95" depart="99.00" departLane="2WO1_0" departPos="5.10" departSpeed="0.00" departDelay="29.00" arrival="200.00" arrivalLane="2SN4_0" arrivalPos="196.00" arrivalSpeed="14.51" duration="101.00" routeLength="1195.24" waitingTime="0.00" waitingCount="0" stopTime="0.00" timeLoss="18.96" rerouteNo="3" devices="tripinfo_95" vType="Cartype" speedFactor="1.06" vaporized=""/>
    <tripinfo id="62" depart="63.00" departLane="2WO1_0" departPos="5.10" departSpeed="0.00" departDelay="12.00" arrival="202.00" arrivalLane="2NS4_0" arrivalPos="196.00" arrivalSpeed="13.94" duration="139.00" routeLength="1187.61" waitingTime="9.00" waitingCount="2" stopTime="0.00" timeLoss="53.28" rerouteNo="3" devices="tripinfo_62" vType="Cartype" speedFactor="1.02" vaporized=""/>
    <tripinfo id="88" depart="94.00" departLane="2WO1_0" departPos="5.10" departSpeed="0.00" departDelay="28.00" arrival="204.00" arrivalLane="2NS4_0" arrivalPos="196.00" arrivalSpeed="13.95" duration="110.00" routeLength="1187.61" waitingTime="0.00" waitingCount="0" stopTime="0.00" timeLoss="23.73" rerouteNo="3" devices="tripinfo_88" vType="Cartype" speedFactor="1.01" vaporized=""/>
    <tripinfo id="55" depart="83.00" departLane="2SN1_0" departPos="5.10" departSpeed="0.00" departDelay="37.00" arrival="208.00" arrivalLane="3OW4_0" arrivalPos="196.00" arrivalSpeed="13.71" duration="125.00" routeLength="894.55" waitingTime="33.00" waitingCount="1" stopTime="0.00" timeLoss="59.31" rerouteNo="2" devices="tripinfo_55" vType="Cartype" speedFactor="1.00" vaporized=""/>
    <tripinfo id="85" depart="65.00" departLane="2OW1_0" departPos="5.10" departSpeed="0.00" departDelay="0.00" arrival="208.00" arrivalLane="1WO4_0" arrivalPos="196.00" arrivalSpeed="13.20" duration="143.00" routeLength="877.56" waitingTime="43.00" waitingCount="2" stopTime="0.00" timeLoss="76.61" rerouteNo="2" devices="tripinfo_85" vType="Cartype" speedFactor="0.98" vaporized=""/>
    <tripinfo id="5" depart="5.00" departLane="2OW1_0" departPos="5.10" departSpeed="0.00" departDelay="1.00" arrival="213.00" arrivalLane="3OW4_0" arrivalPos="196.00" arrivalSpeed="11.44" duration="208.00" routeLength="1486.57" waitingTime="40.00" waitingCount="2" stopTime="0.00" timeLoss="77.41" rerouteNo="4" devices="tripinfo_5" vType="Cartype" speedFactor="0.83" vaporized=""/>
    <tripinfo id="41" depart="56.00" departLane="2NS1_0" departPos="5.10" departSpeed="0.00" departDelay="22.00" arrival="215.00" arrivalLane="1SN4_0" arrivalPos="196.00" arrivalSpeed="13.19" duration="159.00" routeLength="1479.23" waitingTime="6.00" waitingCount="1" stopTime="0.00" timeLoss="45.89" rerouteNo="4" devices="tripinfo_41" vType="Cartype" speedFactor="0.96" vaporized=""/>
    <tripinfo id="43" depart="40.00" departLane="2OW1_0" departPos="5.10" departSpeed="0.00" departDelay="6.00" arrival="215.00" arrivalLane="2NS4_0" arrivalPos="196.00" arrivalSpeed="14.06" duration="175.00" routeLength="1195.24" waitingTime="34.00" waitingCount="2" stopTime="0.00" timeLoss="91.20" rerouteNo="3" devices="tripinfo_43" vType="Cartype" speedFactor="1.04" vaporized=""/>
    <tripinfo id="61" depart="104.00" departLane="2SN1_0" departPos="5.10" departSpeed="0.00" departDelay="53.00" arrival="215.00" arrivalLane="3OW4_0" arrivalPos="196.00" arrivalSpeed="12.93" duration="111.00" routeLength="894.55" waitingTime="17.00" waitingCount="1" stopTime="0.00" timeLoss="52.41" rerouteNo="2" devices="tripinfo_61" vType="Cartype" speedFactor="1.12" vaporized=""/>
    <tripinfo id="63" depart="51.00" departLane="2OW1_0" departPos="5.10" departSpeed="0.00" departDelay="0.00" arrival="218.00" arrivalLane="2NS4_0" arrivalPos="196.00" arrivalSpeed="13.55" duration="167.00" routeLength="1195.24" waitingTime="33.00" waitingCount="2" stopTime="0.00" timeLoss="78.27" rerouteNo="3" devices="tripinfo_63" vType="Cartype" speedFactor="0.99" vaporized=""/>
    <tripinfo id="124" depart="129.00" departLane="2WO1_0" departPos="5.10" departSpeed="0.00" departDelay="30.00" arrival="219.00" arrivalLane="1SN4_0" arrivalPos="196.00" arrivalSpeed="14.46" duration="90.00" routeLength="894.55" waitingTime="0.00" waitingCount="0" stopTime="0.00" timeLoss="28.01" rerouteNo="2" devices="tripinfo_124" vType="Cartype" speedFactor="1.06" vaporized=""/>
    <tripinfo id="4" depart="3.00" departLane="2WO1_0" departPos="5.10" departSpeed="0.00" departDelay="0.00" arrival="220.00" arrivalLane="3WO4_0" arrivalPos="196.00" arrivalSpeed="13.94" duration="217.00" routeLength="1486.57" waitingTime="51.00" waitingCount="3" stopTime="0.00" timeLoss="111.58" rerouteNo="4" devices="tripinfo_4" vType="Cartype" speedFactor="1.03" vaporized=""/>
    <tripinfo id="39" depart="63.00" departLane="2SN1_0" departPos="5.10" departSpeed="0.00" departDelay="30.00" arrival="222.00" arrivalLane="2SN4_0" arrivalPos="196.00" arrivalSpeed="12.50" duration="159.00" routeLength="1196.97" waitingTime="26.00" waitingCount="2" stopTime="0.00" timeLoss="62.81" rerouteNo="3" devices="tripinfo_39" vType="Cartype" speedFactor="0.90" vaporized=""/>
    <tripinfo id="42" depart="68.00" departLane="2SN1_0" departPos="5.10" departSpeed="0.00" departDelay="34.00" arrival="224.00" arrivalLane="2SN4_0" arrivalPos="196.00" arrivalSpeed="13.78" duration="156.00" routeLength="1196.97" waitingTime="23.00" waitingCount="2" stopTime="0.00" timeLoss="76.27" rerouteNo="3" devices="tripinfo_42" vType="Cartype" speedFactor="1.09" vaporized=""/>
    <tripinfo id="57" depart="88.00" departLane="2SN1_0" departPos="5.10" departSpeed="0.00" departDelay="39.00" arrival="225.00" arrivalLane="2SN4_0" arrivalPos="196.00" arrivalSpeed="13.48" duration="137.00" routeLength="1196.97" waitingTime="12.00" waitingCount="1" stopTime="0.00" timeLoss="61.35" rerouteNo="3" devices="tripinfo_57" vType="Cartype" speedFactor="1.14" vaporized=""/>
    <tripinfo id="49" depart="73.00" departLane="2SN1_0" departPos="5.10" departSpeed="0.00" departDelay="33.00" arrival="228.00" arrivalLane="2WO4_0" arrivalPos="196.00" arrivalSpeed="11.81" duration="155.00" routeLength="1187.61" waitingTime="18.00" waitingCount="2" stopTime="0.00" timeLoss="52.62" rerouteNo="3" devices="tripinfo_49" vType="Cartype" speedFactor="0.85" vaporized=""/>
    <tripinfo id="75" depart="130.00" departLane="2SN1_0" departPos="5.10" departSpeed="0.00" departDelay="72.00" arrival="230.00" arrivalLane="3WO4_0" arrivalPos="196.00" arrivalSpeed="13.42" duration="100.00" routeLength="886.92" waitingTime="7.00" waitingCount="1" stopTime="0.00" timeLoss="33.88" rerouteNo="2" devices="tripinfo_75" vType="Cartype" speedFactor="0.98" vaporized=""/>
    <tripinfo id="36" depart="41.00" departLane="2NS1_0" departPos="5.10" departSpeed="0.00" departDelay="9.00" arrival="236.00" arrivalLane="1NS4_0" arrivalPos="196.00" arrivalSpeed="13.14" duration="195.00" routeLength="1486.86" waitingTime="35.00" waitingCount="2" stopTime="0.00" timeLoss="82.89" rerouteNo="4" devices="tripinfo_36" vType="Cartype" speedFactor="0.97" vaporized=""/>
    <tripinfo id="72" depart="118.00" departLane="2NS1_0" departPos="5.10" departSpeed="0.00" departDelay="62.00" arrival="237.00" arrivalLane="3SN4_0" arrivalPos="196.00" arrivalSpeed="12.74" duration="119.00" routeLength="892.82" waitingTime="23.00" waitingCount="1" stopTime="0.00" timeLoss="49.16" rerouteNo="2" devices="tripinfo_72" vType="Cartype" speedFactor="0.94" vaporized=""/>
    <tripinfo id="106" depart="114.00" departLane="2WO1_0" departPos="5.10" departSpeed="0.00" departDelay="32.00" arrival="237.00" arrivalLane="1NS4_0" arrivalPos="196.00" arrivalSpeed="13.75" duration="123.00" routeLength="886.92" waitingTime="21.00" waitingCount="2" stopTime="0.00" timeLoss="59.05" rerouteNo="2" devices="tripinfo_106" vType="Cartype" speedFactor="1.01" vaporized=""/>
    <tripinfo id="118" depart="119.00" departLane="2WO1_0" departPos="5.10" departSpeed="0.00" departDelay="22.00" arrival="240.00" arrivalLane="3OW4_0" arrivalPos="196.00" arrivalSpeed="13.75" duration="121.00" routeLength="877.56" waitingTime="17.00" waitingCount="2" stopTime="0.00" timeLoss="55.84" rerouteNo="2" devices="tripinfo_118" vType="Cartype" speedFactor="0.99" vaporized=""/>
    <tripinfo id="128" depart="134.00" departLane="2WO1_0" departPos="5.10" departSpeed="0.00" departDelay="33.00" arrival="242.00" arrivalLane="3OW4_0" arrivalPos="196.00" arrivalSpeed="14.42" duration="108.00" routeLength="877.56" waitingTime="7.00" waitingCount="1" stopTime="0.00" timeLoss="49.29" rerouteNo="2" devices="tripinfo_128" vType="Cartype" speedFactor="1.12" vaporized=""/>
    <tripinfo id="37" depart="46.00" departLane="2NS1_0" departPos="5.10" departSpeed="0.00" departDelay="14.00" arrival="243.00" arrivalLane="3OW4_0" arrivalPos="196.00" arrivalSpeed="14.79" duration="197.00" routeLength="1477.50" waitingTime="36.00" waitingCount="3" stopTime="0.00" timeLoss="105.30" rerouteNo="4" devices="tripinfo_37" vType="Cartype" speedFactor="1.18" vaporized=""/>
    <tripinfo id="21" depart="20.00" departLane="2OW1_0" departPos="5.10" departSpeed="0.00" departDelay="3.00" arrival="250.00" arrivalLane="1OW4_0" arrivalPos="196.00" arrivalSpeed="13.79" duration="230.00" routeLength="1486.57" waitingTime="61.00" waitingCount="4" stopTime="0.00" timeLoss="122.73" rerouteNo="4" devices="tripinfo_21" vType="Cartype" speedFactor="1.01" vaporized=""/>
    <tripinfo id="96" depart="159.00" departLane="2NS1_0" departPos="5.10" departSpeed="0.00" departDelay="87.00" arrival="253.00" arrivalLane="1OW4_0" arrivalPos="196.00" arrivalSpeed="13.75" duration="94.00" routeLength="886.92" waitingTime="0.00" waitingCount="0" stopTime="0.00" timeLoss="29.58" rerouteNo="2" devices="tripinfo_96" vType="Cartype" speedFactor="1.01" vaporized=""/>
    <tripinfo id="7" depart="10.00" departLane="2NS1_0" departPos="5.10" departSpeed="0.00" departDelay="5.00" arrival="254.00" arrivalLane="3NS4_0" arrivalPos="196.00" arrivalSpeed="12.13" duration="244.00" routeLength="1486.57" waitingTime="71.00" waitingCount="3" stopTime="0.00" timeLoss="121.11" rerouteNo="4" devices="tripinfo_7" vType="Cartype" speedFactor="0.89" vaporized=""/>
    <tripinfo id="54" depart="87.00" departLane="2NS1_0" departPos="5.10" departSpeed="0.00" departDelay="42.00" arrival="255.00" arrivalLane="2NS4_0" arrivalPos="196.00" arrivalSpeed="13.76" duration="168.00" routeLength="1196.97" waitingTime="27.00" waitingCount="3" stopTime="0.00" timeLoss="82.05" rerouteNo="3" devices="tripinfo_54" vType="Cartype" speedFactor="1.00" vaporized=""/>
    <tripinfo id="56" depart="58.00" departLane="2WO1_0" departPos="5.10" departSpeed="0.00" departDelay="10.00" arrival="255.00" arrivalLane="3NS4_0" arrivalPos="196.00" arrivalSpeed="12.20" duration="197.00" routeLength="1488.30" waitingTime="30.00" waitingCount="3" stopTime="0.00" timeLoss="76.87" rerouteNo="4" devices="tripinfo_56" vType="Cartype" speedFactor="0.90" vaporized=""/>
    <tripinfo id="123" depart="121.00" departLane="2OW1_0" departPos="5.10" departSpeed="0.00" departDelay="23.00" arrival="257.00" arrivalLane="2NS4_0" arrivalPos="196.00" arrivalSpeed="14.04" duration="136.00" routeLength="1195.24" waitingTime="19.00" waitingCount="2" stopTime="0.00" timeLoss="51.23" rerouteNo="3" devices="tripinfo_123" vType="Cartype" speedFactor="1.02" vaporized=""/>
    <tripinfo id="138" depart="142.00" departLane="2OW1_0" departPos="5.10" departSpeed="0.00" departDelay="32.00" arrival="257.00" arrivalLane="3NS4_0" arrivalPos="196.00" arrivalSpeed="13.36" duration="115.00" routeLength="894.55" waitingTime="10.00" waitingCount="2" stopTime="0.00" timeLoss="49.49" rerouteNo="2" devices="tripinfo_138" vType="Cartype" speedFactor="1.00" vaporized=""/>
    <tripinfo id="93" depart="80.00" departLane="2OW1_0" departPos="5.10" departSpeed="0.00" departDelay="12.00" arrival="263.00" arrivalLane="2SN4_0" arrivalPos="196.00" arrivalSpeed="12.70" duration="183.00" routeLength="1187.61" waitingTime="42.00" waitingCount="3" stopTime="0.00" timeLoss="89.36" rerouteNo="3" devices="tripinfo_93" vType="Cartype" speedFactor="0.92" vaporized=""/>
    <tripinfo id="140" depart="197.00" departLane="2SN1_0" departPos="5.10" departSpeed="0.00" departDelay="85.00" arrival="263.00" arrivalLane="3OW3_0" arrivalPos="92.00" arrivalSpeed="15.34" duration="66.00" routeLength="489.86" waitingTime="1.00" waitingCount="1" stopTime="0.00" timeLoss="32.67" rerouteNo="1" devices="tripinfo_140" vType="Cartype" speedFactor="1.11" vaporized=""/>
    <tripinfo id="131" depart="127.00" departLane="2OW1_0" departPos="5.10" departSpeed="0.00" departDelay="21.00" arrival="264.00" arrivalLane="3SN4_0" arrivalPos="196.00" arrivalSpeed="14.58" duration="137.00" routeLength="886.92" waitingTime="36.00" waitingCount="2" stopTime="0.00" timeLoss="75.79" rerouteNo="2" devices="tripinfo_131" vType="Cartype" speedFactor="1.07" vaporized=""/>
    <tripinfo id="71" depart="113.00" departLane="2NS1_0" departPos="5.10" departSpeed="0.00" departDelay="57.00" arrival="265.00" arrivalLane="2WO4_0" arrivalPos="196.00" arrivalSpeed="13.12" duration="152.00" routeLength="1195.24" waitingTime="23.00" waitingCount="2" stopTime="0.00" timeLoss="62.09" rerouteNo="3" devices="tripinfo_71" vType="Cartype" speedFactor="0.97" vaporized=""/>
    <tripinfo id="105" depart="90.00" departLane="2OW1_0" departPos="5.10" departSpeed="0.00" departDelay="9.00" arrival="265.00" arrivalLane="2SN4_0" arrivalPos="196.00" arrivalSpeed="13.94" duration="175.00" routeLength="1187.61" waitingTime="33.00" waitingCount="2" stopTime="0.00" timeLoss="93.91" rerouteNo="3" devices="tripinfo_105" vType="Cartype" speedFactor="1.07" vaporized=""/>
    <tripinfo id="161" depart="169.00" departLane="2OW1_0" departPos="5.10" departSpeed="0.00" departDelay="36.00" arrival="265.00" arrivalLane="1WO4_0" arrivalPos="196.00" arrivalSpeed="14.81" duration="96.00" routeLength="877.56" waitingTime="6.00" waitingCount="1" stopTime="0.00" timeLoss="35.79" rerouteNo="2" devices="tripinfo_161" vType="Cartype" speedFactor="1.08" vaporized=""/>
    <tripinfo id="24" depart="30.00" departLane="2OW1_0" departPos="5.10" departSpeed="0.00" departDelay="7.00" arrival="266.00" arrivalLane="3OW4_0" arrivalPos="196.00" arrivalSpeed="11.23" duration="236.00" routeLength="1486.57" waitingTime="52.00" waitingCount="4" stopTime="0.00" timeLoss="104.45" rerouteNo="4" devices="tripinfo_24" vType="Cartype" speedFactor="0.83" vaporized=""/>