<?xml version="1.0" encoding="UTF-8"?>

<!-- generated on 01/26/20 09:16:13 by Eclipse SUMO Version 1.3.1
<configuration xmlns:xsi="http://www.w3.org/2001/XMLSchema-instance" xsi:noNamespaceSchemaLocation="http://sumo.dlr.de/xsd/sumoConfiguration.xsd">

    <input>
        <net-file value="Data/Cross_3_3.net.xml"/>
        <route-files value="Data/Cross12.rou.xml"/>
        <additional-files value="Data/rerouter.xml,Data/trafficLight.add.xml"/>
    </input>

    <output>
        <tripinfo-output value="tripinfo.xml"/>
    </output>

    <report>
        <log value="logfile.txt"/>
    </report>

    <traci_server>
        <remote-port value="65514"/>
    </traci_server>

</configuration>
-->

<tripinfos xmlns:xsi="http://www.w3.org/2001/XMLSchema-instance" xsi:noNamespaceSchemaLocation="http://sumo.dlr.de/xsd/tripinfo_file.xsd">
    <tripinfo id="4" depart="7.00" departLane="2NS1_0" departPos="5.10" departSpeed="0.00" departDelay="3.00" arrival="85.00" arrivalLane="1WO4_0" arrivalPos="196.00" arrivalSpeed="14.15" duration="78.00" routeLength="894.55" waitingTime="0.00" waitingCount="0" stopTime="0.00" timeLoss="14.19" rerouteNo="2" devices="tripinfo_4" vType="Cartype" speedFactor="1.03" vaporized=""/>
    <tripinfo id="10" depart="9.00" departLane="2OW1_0" departPos="5.10" departSpeed="0.00" departDelay="2.00" arrival="92.00" arrivalLane="3WO4_0" arrivalPos="196.00" arrivalSpeed="14.87" duration="83.00" routeLength="892.82" waitingTime="0.00" waitingCount="0" stopTime="0.00" timeLoss="22.53" rerouteNo="2" devices="tripinfo_10" vType="Cartype" speedFactor="1.09" vaporized=""/>
    <tripinfo id="22" depart="17.00" departLane="2SN1_0" departPos="5.10" departSpeed="0.00" departDelay="1.00" arrival="99.00" arrivalLane="3OW4_0" arrivalPos="196.00" arrivalSpeed="13.22" duration="82.00" routeLength="894.55" waitingTime="0.00" waitingCount="0" stopTime="0.00" timeLoss="14.53" rerouteNo="2" devices="tripinfo_22" vType="Cartype" speedFactor="0.98" vaporized=""/>
    <tripinfo id="5" depart="12.00" departLane="2NS1_0" departPos="5.10" departSpeed="0.00" departDelay="8.00" arrival="103.00" arrivalLane="1WO4_0" arrivalPos="196.00" arrivalSpeed="11.52" duration="91.00" routeLength="894.55" waitingTime="0.00" waitingCount="0" stopTime="0.00" timeLoss="12.53" rerouteNo="2" devices="tripinfo_5" vType="Cartype" speedFactor="0.83" vaporized=""/>
    <tripinfo id="8" depart="7.00" departLane="2SN1_0" departPos="5.10" departSpeed="0.00" departDelay="0.00" arrival="118.00" arrivalLane="3WO4_0" arrivalPos="196.00" arrivalSpeed="13.00" duration="111.00" routeLength="886.92" waitingTime="16.00" waitingCount="1" stopTime="0.00" timeLoss="41.54" rerouteNo="2" devices="tripinfo_8" vType="Cartype" speedFactor="0.94" vaporized=""/>
    <tripinfo id="23" depart="22.00" departLane="2SN1_0" departPos="5.10" departSpeed="0.00" departDelay="5.00" arrival="121.00" arrivalLane="3WO4_0" arrivalPos="196.00" arrivalSpeed="12.10" duration="99.00" routeLength="886.92" waitingTime="2.00" waitingCount="1" stopTime="0.00" timeLoss="26.59" rerouteNo="2" devices="tripinfo_23" vType="Cartype" speedFactor="0.89" vaporized=""/>
    <tripinfo id="6" depart="10.00" departLane="2WO1_0" departPos="5.10" departSpeed="0.00" departDelay="6.00" arrival="122.00" arrivalLane="1OW4_0" arrivalPos="196.00" arrivalSpeed="14.46" duration="112.00" routeLength="892.82" waitingTime="18.00" waitingCount="1" stopTime="0.00" timeLoss="49.11" rerouteNo="2" devices="tripinfo_6" vType="Cartype" speedFactor="1.05" vaporized=""/>
    <tripinfo id="9" depart="15.00" departLane="2WO1_0" departPos="5.10" departSpeed="0.00" departDelay="8.00" arrival="128.00" arrivalLane="1OW4_0" arrivalPos="196.00" arrivalSpeed="11.79" duration="113.00" routeLength="892.82" waitingTime="10.00" waitingCount="1" stopTime="0.00" timeLoss="35.83" rerouteNo="2" devices="tripinfo_9" vType="Cartype" speedFactor="0.86" vaporized=""/>
    <tripinfo id="32" depart="50.00" departLane="2WO1_0" departPos="5.10" departSpeed="0.00" departDelay="24.00" arrival="132.00" arrivalLane="1SN4_0" arrivalPos="196.00" arrivalSpeed="13.59" duration="82.00" routeLength="894.55" waitingTime="0.00" waitingCount="0" stopTime="0.00" timeLoss="16.85" rerouteNo="2" devices="tripinfo_32" vType="Cartype" speedFactor="1.01" vaporized=""/>
    <tripinfo id="47" depart="48.00" departLane="2SN1_0" departPos="5.10" departSpeed="0.00" departDelay="14.00" arrival="133.00" arrivalLane="3WO4_0" arrivalPos="196.00" arrivalSpeed="12.37" duration="85.00" routeLength="886.92" waitingTime="0.00" waitingCount="0" stopTime="0.00" timeLoss="13.14" rerouteNo="2" devices="tripinfo_47" vType="Cartype" speedFactor="0.90" vaporized=""/>
    <tripinfo id="7" depart="4.00" departLane="2OW1_0" departPos="5.10" departSpeed="0.00" departDelay="0.00" arrival="135.00" arrivalLane="3SN4_0" arrivalPos="196.00" arrivalSpeed="12.07" duration="131.00" routeLength="886.92" waitingTime="31.00" waitingCount="1" stopTime="0.00" timeLoss="58.01" rerouteNo="2" devices="tripinfo_7" vType="Cartype" speedFactor="0.89" vaporized=""/>
    <tripinfo id="17" depart="29.00" departLane="2OW1_0" departPos="5.10" departSpeed="0.00" departDelay="17.00" arrival="135.00" arrivalLane="2SN4_0" arrivalPos="196.00" arrivalSpeed="12.69" duration="106.00" routeLength="1187.61" waitingTime="0.00" waitingCount="0" stopTime="0.00" timeLoss="14.31" rerouteNo="3" devices="tripinfo_17" vType="Cartype" speedFactor="0.94" vaporized=""/>
    <tripinfo id="26" depart="44.00" departLane="2OW1_0" departPos="5.10" departSpeed="0.00" departDelay="27.00" arrival="135.00" arrivalLane="1WO4_0" arrivalPos="196.00" arrivalSpeed="12.52" duration="91.00" routeLength="877.56" waitingTime="0.00" waitingCount="0" stopTime="0.00" timeLoss="20.40" rerouteNo="2" devices="tripinfo_26" vType="Cartype" speedFactor="0.92" vaporized=""/>
    <tripinfo id="24" depart="30.00" departLane="2WO1_0" departPos="5.10" departSpeed="0.00" departDelay="13.00" arrival="147.00" arrivalLane="2SN4_0" arrivalPos="196.00" arrivalSpeed="11.46" duration="117.00" routeLength="1195.24" waitingTime="0.00" waitingCount="0" stopTime="0.00" timeLoss="11.82" rerouteNo="3" devices="tripinfo_24" vType="Cartype" speedFactor="0.83" vaporized=""/>
    <tripinfo id="12" depart="20.00" departLane="2WO1_0" departPos="5.10" departSpeed="0.00" departDelay="11.00" arrival="152.00" arrivalLane="1NS4_0" arrivalPos="196.00" arrivalSpeed="14.19" duration="132.00" routeLength="886.92" waitingTime="43.00" waitingCount="1" stopTime="0.00" timeLoss="70.31" rerouteNo="2" devices="tripinfo_12" vType="Cartype" speedFactor="1.05" vaporized=""/>
    <tripinfo id="29" depart="40.00" departLane="2WO1_0" departPos="5.10" departSpeed="0.00" departDelay="15.00" arrival="156.00" arrivalLane="1NS4_0" arrivalPos="196.00" arrivalSpeed="12.56" duration="116.00" routeLength="886.92" waitingTime="20.00" waitingCount="1" stopTime="0.00" timeLoss="46.19" rerouteNo="2" devices="tripinfo_29" vType="Cartype" speedFactor="0.93" vaporized=""/>
    <tripinfo id="21" depart="39.00" departLane="2OW1_0" departPos="5.10" departSpeed="0.00" departDelay="25.00" arrival="160.00" arrivalLane="2NS4_0" arrivalPos="196.00" arrivalSpeed="13.76" duration="121.00" routeLength="1195.24" waitingTime="2.00" waitingCount="1" stopTime="0.00" timeLoss="34.34" rerouteNo="3" devices="tripinfo_21" vType="Cartype" speedFactor="1.01" vaporized=""/>
    <tripinfo id="14" depart="19.00" departLane="2OW1_0" departPos="5.10" departSpeed="0.00" departDelay="10.00" arrival="163.00" arrivalLane="3NS4_0" arrivalPos="196.00" arrivalSpeed="13.55" duration="144.00" routeLength="894.55" waitingTime="49.00" waitingCount="1" stopTime="0.00" timeLoss="77.92" rerouteNo="2" devices="tripinfo_14" vType="Cartype" speedFactor="0.99" vaporized=""/>
    <tripinfo id="11" depart="17.00" departLane="2NS1_0" departPos="5.10" departSpeed="0.00" departDelay="8.00" arrival="164.00" arrivalLane="2NS4_0" arrivalPos="196.00" arrivalSpeed="13.87" duration="147.00" routeLength="1196.97" waitingTime="36.00" waitingCount="1" stopTime="0.00" timeLoss="62.64" rerouteNo="3" devices="tripinfo_11" vType="Cartype" speedFactor="1.03" vaporized=""/>
    <tripinfo id="28" depart="54.00" departLane="2OW1_0" departPos="5.10" departSpeed="0.00" departDelay="33.00" arrival="167.00" arrivalLane="3NS4_0" arrivalPos="196.00" arrivalSpeed="15.65" duration="113.00" routeLength="894.55" waitingTime="22.00" waitingCount="1" stopTime="0.00" timeLoss="54.98" rerouteNo="2" devices="tripinfo_28" vType="Cartype" speedFactor="1.13" vaporized=""/>
    <tripinfo id="60" depart="49.00" departLane="2NS1_0" departPos="5.10" departSpeed="0.00" departDelay="7.00" arrival="167.00" arrivalLane="1SN4_0" arrivalPos="196.00" arrivalSpeed="14.81" duration="118.00" routeLength="877.56" waitingTime="17.00" waitingCount="2" stopTime="0.00" timeLoss="57.51" rerouteNo="2" devices="tripinfo_60" vType="Cartype" speedFactor="1.08" vaporized=""/>
    <tripinfo id="15" depart="12.00" departLane="2SN1_0" departPos="5.10" departSpeed="0.00" departDelay="1.00" arrival="168.00" arrivalLane="2SN4_0" arrivalPos="196.00" arrivalSpeed="12.60" duration="156.00" routeLength="1196.97" waitingTime="40.00" waitingCount="1" stopTime="0.00" timeLoss="62.91" rerouteNo="3" devices="tripinfo_15" vType="Cartype" speedFactor="0.93" vaporized=""/>
    <tripinfo id="30" depart="59.00" departLane="2OW1_0" departPos="5.10" departSpeed="0.00" departDelay="34.00" arrival="169.00" arrivalLane="3NS4_0" arrivalPos="196.00" arrivalSpeed="16.08" duration="110.00" routeLength="894.55" waitingTime="19.00" waitingCount="1" stopTime="0.00" timeLoss="54.21" rerouteNo="2" devices="tripinfo_30" vType="Cartype" speedFactor="1.18" vaporized=""/>
    <tripinfo id="69" depart="65.00" departLane="2NS1_0" departPos="5.10" departSpeed="0.00" departDelay="14.00" arrival="170.00" arrivalLane="1OW4_0" arrivalPos="196.00" arrivalSpeed="13.89" duration="105.00" routeLength="886.92" waitingTime="2.00" waitingCount="1" stopTime="0.00" timeLoss="40.83" rerouteNo="2" devices="tripinfo_69" vType="Cartype" speedFactor="1.02" vaporized=""/>
    <tripinfo id="44" depart="69.00" departLane="2OW1_0" departPos="5.10" departSpeed="0.00" departDelay="36.00" arrival="172.00" arrivalLane="3NS4_0" arrivalPos="196.00" arrivalSpeed="14.44" duration="103.00" routeLength="894.55" waitingTime="11.00" waitingCount="2" stopTime="0.00" timeLoss="39.85" rerouteNo="2" devices="tripinfo_44" vType="Cartype" speedFactor="1.04" vaporized=""/>
    <tripinfo id="34" depart="28.00" departLane="2NS1_0" departPos="5.10" departSpeed="0.00" departDelay="0.00" arrival="176.00" arrivalLane="2OW4_0" arrivalPos="196.00" arrivalSpeed="13.45" duration="148.00" routeLength="1187.90" waitingTime="32.00" waitingCount="1" stopTime="0.00" timeLoss="60.93" rerouteNo="3" devices="tripinfo_34" vType="Cartype" speedFactor="0.99" vaporized=""/>
    <tripinfo id="45" depart="38.00" departLane="2NS1_0" departPos="5.10" departSpeed="0.00" departDelay="4.00" arrival="176.00" arrivalLane="1WO4_0" arrivalPos="196.00" arrivalSpeed="15.04" duration="138.00" routeLength="894.55" waitingTime="50.00" waitingCount="1" stopTime="0.00" timeLoss="77.79" rerouteNo="2" devices="tripinfo_45" vType="Cartype" speedFactor="1.09" vaporized=""/>
    <tripinfo id="86" depart="96.00" departLane="2NS1_0" departPos="5.10" departSpeed="0.00" departDelay="28.00" arrival="177.00" arrivalLane="1OW4_0" arrivalPos="196.00" arrivalSpeed="13.73" duration="81.00" routeLength="886.92" waitingTime="1.00" waitingCount="1" stopTime="0.00" timeLoss="15.38" rerouteNo="2" devices="tripinfo_86" vType="Cartype" speedFactor="1.00" vaporized=""/>
    <tripinfo id="13" depart="14.00" departLane="2OW1_0" departPos="5.10" departSpeed="0.00" departDelay="5.00" arrival="178.00" arrivalLane="3SN4_0" arrivalPos="196.00" arrivalSpeed="15.29" duration="164.00" routeLength="1477.21" waitingTime="23.00" waitingCount="2" stopTime="0.00" timeLoss="66.72" rerouteNo="4" devices="tripinfo_13" vType="Cartype" speedFactor="1.12" vaporized=""/>
    <tripinfo id="54" depart="43.00" departLane="2NS1_0" departPos="5.10" departSpeed="0.00" departDelay="6.00" arrival="180.00" arrivalLane="1WO4_0" arrivalPos="196.00" arrivalSpeed="13.67" duration="137.00" routeLength="894.55" waitingTime="44.00" waitingCount="1" stopTime="0.00" timeLoss="71.58" rerouteNo="2" devices="tripinfo_54" vType="Cartype" speedFactor="1.00" vaporized=""/>
    <tripinfo id="87" depart="102.00" departLane="2NS1_0" departPos="5.10" departSpeed="0.00" departDelay="33.00" arrival="180.00" arrivalLane="1OW4_0" arrivalPos="196.00" arrivalSpeed="14.18" duration="78.00" routeLength="886.92" waitingTime="0.00" waitingCount="0" stopTime="0.00" timeLoss="16.25" rerouteNo="2" devices="tripinfo_87" vType="Cartype" speedFactor="1.04" vaporized=""/>
    <tripinfo id="62" depart="95.00" departLane="2OW1_0" departPos="5.10" departSpeed="0.00" departDelay="51.00" arrival="183.00" arrivalLane="3WO4_0" arrivalPos="196.00" arrivalSpeed="13.97" duration="88.00" routeLength="892.82" waitingTime="0.00" waitingCount="0" stopTime="0.00" timeLoss="22.49" rerouteNo="2" devices="tripinfo_62" vType="Cartype" speedFactor="1.02" vaporized=""/>
    <tripinfo id="66" depart="59.00" departLane="2NS1_0" departPos="5.10" departSpeed="0.00" departDelay="9.00" arrival="188.00" arrivalLane="2OW4_0" arrivalPos="196.00" arrivalSpeed="12.27" duration="129.00" routeLength="1187.90" waitingTime="6.00" waitingCount="1" stopTime="0.00" timeLoss="34.03" rerouteNo="3" devices="tripinfo_66" vType="Cartype" speedFactor="0.91" vaporized=""/>
    <tripinfo id="72" depart="100.00" departLane="2OW1_0" departPos="5.10" departSpeed="0.00" departDelay="45.00" arrival="188.00" arrivalLane="3WO4_0" arrivalPos="196.00" arrivalSpeed="12.97" duration="88.00" routeLength="892.82" waitingTime="0.00" waitingCount="0" stopTime="0.00" timeLoss="17.87" rerouteNo="2" devices="tripinfo_72" vType="Cartype" speedFactor="0.94" vaporized=""/>
    <tripinfo id="65" depart="54.00" departLane="2NS1_0" departPos="5.10" departSpeed="0.00" departDelay="4.00" arrival="189.00" arrivalLane="2WO4_0" arrivalPos="196.00" arrivalSpeed="11.93" duration="135.00" routeLength="1195.24" waitingTime="8.00" waitingCount="1" stopTime="0.00" timeLoss="36.46" rerouteNo="3" devices="tripinfo_65" vType="Cartype" speedFactor="0.88" vaporized=""/>
    <tripinfo id="39" depart="38.00" departLane="2SN1_0" departPos="5.10" departSpeed="0.00" departDelay="7.00" arrival="199.00" arrivalLane="1WO4_0" arrivalPos="196.00" arrivalSpeed="12.40" duration="161.00" routeLength="1488.30" waitingTime="13.00" waitingCount="1" stopTime="0.00" timeLoss="40.88" rerouteNo="4" devices="tripinfo_39" vType="Cartype" speedFactor="0.90" vaporized=""/>
    <tripinfo id="50" depart="58.00" departLane="2SN1_0" departPos="5.10" departSpeed="0.00" departDelay="23.00" arrival="202.00" arrivalLane="3OW4_0" arrivalPos="196.00" arrivalSpeed="11.55" duration="144.00" routeLength="894.55" waitingTime="42.00" waitingCount="1" stopTime="0.00" timeLoss="66.89" rerouteNo="2" devices="tripinfo_50" vType="Cartype" speedFactor="0.85" vaporized=""/>
    <tripinfo id="18" depart="22.00" departLane="2NS1_0" departPos="5.10" departSpeed="0.00" departDelay="9.00" arrival="205.00" arrivalLane="3OW4_0" arrivalPos="196.00" arrivalSpeed="12.80" duration="183.00" routeLength="1488.30" waitingTime="31.00" waitingCount="1" stopTime="0.00" timeLoss="67.53" rerouteNo="4" devices="tripinfo_18" vType="Cartype" speedFactor="0.94" vaporized=""/>
    <tripinfo id="121" depart="158.00" departLane="2SN1_0" departPos="5.10" departSpeed="0.00" departDelay="74.00" arrival="206.00" arrivalLane="3OW3_0" arrivalPos="92.00" arrivalSpeed="15.26" duration="48.00" routeLength="489.86" waitingTime="0.00" waitingCount="0" stopTime="0.00" timeLoss="14.43" rerouteNo="1" devices="tripinfo_121" vType="Cartype" speedFactor="1.10" vaporized=""/>
    <tripinfo id="52" depart="68.00" departLane="2SN1_0" departPos="5.10" departSpeed="0.00" departDelay="32.00" arrival="207.00" arrivalLane="3NS4_0" arrivalPos="196.00" arrivalSpeed="13.94" duration="139.00" routeLength="877.56" waitingTime="39.00" waitingCount="2" stopTime="0.00" timeLoss="75.41" rerouteNo="2" devices="tripinfo_52" vType="Cartype" speedFactor="1.02" vaporized=""/>
    <tripinfo id="55" depart="73.00" departLane="2SN1_0" departPos="5.10" departSpeed="0.00" departDelay="36.00" arrival="211.00" arrivalLane="3WO4_0" arrivalPos="196.00" arrivalSpeed="13.49" duration="138.00" routeLength="886.92" waitingTime="35.00" waitingCount="2" stopTime="0.00" timeLoss="72.39" rerouteNo="2" devices="tripinfo_55" vType="Cartype" speedFactor="1.00" vaporized=""/>
    <tripinfo id="37" depart="61.00" departLane="2WO1_0" departPos="5.10" departSpeed="0.00" departDelay="32.00" arrival="212.00" arrivalLane="1SN4_0" arrivalPos="196.00" arrivalSpeed="16.31" duration="151.00" routeLength="894.55" waitingTime="57.00" waitingCount="1" stopTime="0.00" timeLoss="94.98" rerouteNo="2" devices="tripinfo_37" vType="Cartype" speedFactor="1.18" vaporized=""/>
    <tripinfo id="42" depart="71.00" departLane="2WO1_0" departPos="5.10" departSpeed="0.00" departDelay="39.00" arrival="212.00" arrivalLane="1OW4_0" arrivalPos="196.00" arrivalSpeed="14.92" duration="141.00" routeLength="892.82" waitingTime="38.00" waitingCount="2" stopTime="0.00" timeLoss="80.17" rerouteNo="2" devices="tripinfo_42" vType="Cartype" speedFactor="1.09" vaporized=""/>
    <tripinfo id="126" depart="163.00" departLane="2SN1_0" departPos="5.10" departSpeed="0.00" departDelay="74.00" arrival="212.00" arrivalLane="3OW3_0" arrivalPos="92.00" arrivalSpeed="13.95" duration="49.00" routeLength="489.86" waitingTime="0.00" waitingCount="0" stopTime="0.00" timeLoss="14.06" rerouteNo="1" devices="tripinfo_126" vType="Cartype" speedFactor="1.03" vaporized=""/>
    <tripinfo id="109" depart="133.00" departLane="2SN1_0" departPos="5.10" departSpeed="0.00" departDelay="53.00" arrival="214.00" arrivalLane="3OW4_0" arrivalPos="196.00" arrivalSpeed="13.18" duration="81.00" routeLength="894.55" waitingTime="0.00" waitingCount="0" stopTime="0.00" timeLoss="13.02" rerouteNo="2" devices="tripinfo_109" vType="Cartype" speedFactor="0.96" vaporized=""/>
    <tripinfo id="43" depart="77.00" departLane="2WO1_0" departPos="5.10" departSpeed="0.00" departDelay="44.00" arrival="217.00" arrivalLane="2SN4_0" arrivalPos="196.00" arrivalSpeed="14.02" duration="140.00" routeLength="1195.24" waitingTime="10.00" waitingCount="2" stopTime="0.00" timeLoss="56.18" rerouteNo="3" devices="tripinfo_43" vType="Cartype" speedFactor="1.04" vaporized=""/>
    <tripinfo id="74" depart="108.00" departLane="2WO1_0" departPos="5.10" departSpeed="0.00" departDelay="52.00" arrival="218.00" arrivalLane="1SN4_0" arrivalPos="196.00" arrivalSpeed="12.88" duration="110.00" routeLength="894.55" waitingTime="10.00" waitingCount="1" stopTime="0.00" timeLoss="41.54" rerouteNo="2" devices="tripinfo_74" vType="Cartype" speedFactor="0.96" vaporized=""/>
    <tripinfo id="25" depart="35.00" departLane="2WO1_0" departPos="5.10" departSpeed="0.00" departDelay="18.00" arrival="219.00" arrivalLane="3NS4_0" arrivalPos="196.00" arrivalSpeed="11.75" duration="184.00" routeLength="1477.21" waitingTime="27.00" waitingCount="1" stopTime="0.00" timeLoss="59.64" rerouteNo="4" devices="tripinfo_25" vType="Cartype" speedFactor="0.87" vaporized=""/>
    <tripinfo id="78" depart="118.00" departLane="2WO1_0" departPos="5.10" departSpeed="0.00" departDelay="58.00" arrival="220.00" arrivalLane="1SN4_0" arrivalPos="196.00" arrivalSpeed="13.90" duration="102.00" routeLength="894.55" waitingTime="2.00" waitingCount="1" stopTime="0.00" timeLoss="36.65" rerouteNo="2" devices="tripinfo_78" vType="Cartype" speedFactor="1.01" vaporized=""/>
    <tripinfo id="38" depart="64.00" departLane="2OW1_0" departPos="5.10" departSpeed="0.00" departDelay="34.00" arrival="222.00" arrivalLane="3SN4_0" arrivalPos="196.00" arrivalSpeed="14.92" duration="158.00" routeLength="886.92" waitingTime="57.00" waitingCount="2" stopTime="0.00" timeLoss="98.88" rerouteNo="2" devices="tripinfo_38" vType="Cartype" speedFactor="1.10" vaporized=""/>
    <tripinfo id="96" depart="138.00" departLane="2WO1_0" departPos="5.10" departSpeed="0.00" departDelay="65.00" arrival="223.00" arrivalLane="1SN4_0" arrivalPos="196.00" arrivalSpeed="14.00" duration="85.00" routeLength="894.55" waitingTime="0.00" waitingCount="0" stopTime="0.00" timeLoss="20.29" rerouteNo="2" devices="tripinfo_96" vType="Cartype" speedFactor="1.01" vaporized=""/>
    <tripinfo id="88" depart="128.00" departLane="2WO1_0" departPos="5.10" departSpeed="0.00" departDelay="59.00" arrival="225.00" arrivalLane="1OW4_0" arrivalPos="196.00" arrivalSpeed="13.95" duration="97.00" routeLength="892.82" waitingTime="2.00" waitingCount="1" stopTime="0.00" timeLoss="30.92" rerouteNo="2" devices="tripinfo_88" vType="Cartype" speedFactor="1.01" vaporized=""/>
    <tripinfo id="49" depart="75.00" departLane="2OW1_0" departPos="5.10" departSpeed="0.00" departDelay="41.00" arrival="227.00" arrivalLane="3SN4_0" arrivalPos="196.00" arrivalSpeed="11.46" duration="152.00" routeLength="886.92" waitingTime="40.00" waitingCount="2" stopTime="0.00" timeLoss="75.83" rerouteNo="2" devices="tripinfo_49" vType="Cartype" speedFactor="0.85" vaporized=""/>
    <tripinfo id="58" depart="90.00" departLane="2OW1_0" departPos="5.10" departSpeed="0.00" departDelay="51.00" arrival="228.00" arrivalLane="1WO4_0" arrivalPos="196.00" arrivalSpeed="14.05" duration="138.00" routeLength="877.56" waitingTime="32.00" waitingCount="2" stopTime="0.00" timeLoss="74.24" rerouteNo="2" devices="tripinfo_58" vType="Cartype" speedFactor="1.02" vaporized=""/>
    <tripinfo id="53" depart="80.00" departLane="2OW1_0" departPos="5.10" departSpeed="0.00" departDelay="44.00" arrival="229.00" arrivalLane="3SN4_0" arrivalPos="196.00" arrivalSpeed="12.54" duration="149.00" routeLength="886.92" waitingTime="39.00" waitingCount="2" stopTime="0.00" timeLoss="89.41" rerouteNo="2" devices="tripinfo_53" vType="Cartype" speedFactor="1.10" vaporized=""/>
    <tripinfo id="2" depart="5.00" departLane="2WO1_0" departPos="5.10" departSpeed="0.00" departDelay="4.00" arrival="231.00" arrivalLane="2OW4_0" arrivalPos="196.00" arrivalSpeed="13.69" duration="226.00" routeLength="1768.13" waitingTime="35.00" waitingCount="3" stopTime="0.00" timeLoss="96.98" rerouteNo="5" devices="tripinfo_2" vType="Cartype" speedFactor="1.01" vaporized=""/>
    <tripinfo id="94" depart="120.00" departLane="2OW1_0" departPos="5.10" departSpeed="0.00" departDelay="48.00" arrival="231.00" arrivalLane="3SN4_0" arrivalPos="196.00" arrivalSpeed="13.73" duration="111.00" routeLength="886.92" waitingTime="18.00" waitingCount="1" stopTime="0.00" timeLoss="51.16" rerouteNo="2" devices="tripinfo_94" vType="Cartype" speedFactor="1.09" vaporized=""/>
    <tripinfo id="79" depart="98.00" departLane="2SN1_0" departPos="5.10" departSpeed="0.00" departDelay="36.00" arrival="233.00" arrivalLane="2OW4_0" arrivalPos="196.00" arrivalSpeed="15.07" duration="135.00" routeLength="1183.74" waitingTime="10.00" waitingCount="2" stopTime="0.00" timeLoss="54.29" rerouteNo="3" devices="tripinfo_79" vType="Cartype" speedFactor="1.09" vaporized=""/>
    <tripinfo id="85" depart="91.00" departLane="2NS1_0" departPos="5.10" departSpeed="0.00" departDelay="24.00" arrival="233.00" arrivalLane="3SN4_0" arrivalPos="196.00" arrivalSpeed="13.49" duration="142.00" routeLength="1494.20" waitingTime="0.00" waitingCount="0" stopTime="0.00" timeLoss="29.57" rerouteNo="4" devices="tripinfo_85" vType="Cartype" speedFactor="0.98" vaporized=""/>
    <tripinfo id="27" depart="49.00" departLane="2OW1_0" departPos="5.10" departSpeed="0.00" departDelay="29.00" arrival="235.00" arrivalLane="2NS4_0" arrivalPos="196.00" arrivalSpeed="13.03" duration="186.00" routeLength="1184.15" waitingTime="55.00" waitingCount="2" stopTime="0.00" timeLoss="93.76" rerouteNo="3" devices="tripinfo_27" vType="Cartype" speedFactor="0.95" vaporized=""/>
    <tripinfo id="75" depart="113.00" departLane="2WO1_0" departPos="5.10" departSpeed="0.00" departDelay="57.00" arrival="238.00" arrivalLane="3SN4_0" arrivalPos="196.00" arrivalSpeed="13.42" duration="125.00" routeLength="1495.93" waitingTime="0.00" waitingCount="0" stopTime="0.00" timeLoss="14.34" rerouteNo="4" devices="tripinfo_75" vType="Cartype" speedFactor="0.98" vaporized=""/>
    <tripinfo id="57" depart="85.00" departLane="2OW1_0" departPos="5.10" departSpeed="0.00" departDelay="48.00" arrival="240.00" arrivalLane="2OW4_0" arrivalPos="196.00" arrivalSpeed="15.76" duration="155.00" routeLength="1197.26" waitingTime="35.00" waitingCount="2" stopTime="0.00" timeLoss="78.89" rerouteNo="3" devices="tripinfo_57" vType="Cartype" speedFactor="1.14" vaporized=""/>
    <tripinfo id="123" depart="158.00" departLane="2WO1_0" departPos="5.10" departSpeed="0.00" departDelay="72.00" arrival="242.00" arrivalLane="1OW4_0" arrivalPos="196.00" arrivalSpeed="13.83" duration="84.00" routeLength="892.82" waitingTime="0.00" waitingCount="0" stopTime="0.00" timeLoss="19.25" rerouteNo="2" devices="tripinfo_123" vType="Cartype" speedFactor="1.02" vaporized=""/>
    <tripinfo id="40" depart="66.00" departLane="2WO1_0" departPos="5.10" departSpeed="0.00" departDelay="35.00" arrival="243.00" arrivalLane="1NS4_0" arrivalPos="196.00" arrivalSpeed="13.91" duration="177.00" routeLength="886.92" waitingTime="73.00" waitingCount="2" stopTime="0.00" timeLoss="114.03" rerouteNo="2" devices="tripinfo_40" vType="Cartype" speedFactor="1.03" vaporized=""/>
    <tripinfo id="56" depart="82.00" departLane="2WO1_0" departPos="5.10" departSpeed="0.00" departDelay="45.00" arrival="246.00" arrivalLane="3OW4_0" arrivalPos="196.00" arrivalSpeed="12.12" duration="164.00" routeLength="877.56" waitingTime="57.00" waitingCount="2" stopTime="0.00" timeLoss="92.20" rerouteNo="2" devices="tripinfo_56" vType="Cartype" speedFactor="0.90" vaporized=""/>
    <tripinfo id="31" depart="45.00" departLane="2WO1_0" departPos="5.10" departSpeed="0.00" departDelay="19.00" arrival="247.00" arrivalLane="2NS4_0" arrivalPos="196.00" arrivalSpeed="15.68" duration="202.00" routeLength="1187.61" waitingTime="83.00" waitingCount="2" stopTime="0.00" timeLoss="126.68" rerouteNo="3" devices="tripinfo_31" vType="Cartype" speedFactor="1.15" vaporized=""/>
    <tripinfo id="63" depart="92.00" departLane="2WO1_0" departPos="5.10" departSpeed="0.00" departDelay="47.00" arrival="248.00" arrivalLane="3OW4_0" arrivalPos="196.00" arrivalSpeed="13.40" duration="156.00" routeLength="877.56" waitingTime="51.00" waitingCount="1" stopTime="0.00" timeLoss="90.17" rerouteNo="2" devices="tripinfo_63" vType="Cartype" speedFactor="0.99" vaporized=""/>
    <tripinfo id="51" depart="63.00" departLane="2SN1_0" departPos="5.10" departSpeed="0.00" departDelay="27.00" arrival="250.00" arrivalLane="2WO4_0" arrivalPos="196.00" arrivalSpeed="15.85" duration="187.00" routeLength="1187.61" waitingTime="72.00" waitingCount="2" stopTime="0.00" timeLoss="112.86" rerouteNo="3" devices="tripinfo_51" vType="Cartype" speedFactor="1.17" vaporized=""/>
    <tripinfo id="71" depart="103.00" departLane="2WO1_0" departPos="5.10" departSpeed="0.00" departDelay="48.00" arrival="250.00" arrivalLane="2NS4_0" arrivalPos="196.00" arrivalSpeed="13.18" duration="147.00" routeLength="1187.61" waitingTime="24.00" waitingCount="1" stopTime="0.00" timeLoss="58.25" rerouteNo="3" devices="tripinfo_71" vType="Cartype" speedFactor="0.97" vaporized=""/>
    <tripinfo id="82" depart="123.00" departLane="2WO1_0" departPos="5.10" departSpeed="0.00" departDelay="59.00" arrival="250.00" arrivalLane="1NS4_0" arrivalPos="196.00" arrivalSpeed="13.88" duration="127.00" routeLength="886.92" waitingTime="34.00" waitingCount="1" stopTime="0.00" timeLoss="63.42" rerouteNo="2" devices="tripinfo_82" vType="Cartype" speedFactor="1.02" vaporized=""/>
    <tripinfo id="35" depart="28.00" departLane="2SN1_0" departPos="5.10" departSpeed="0.00" departDelay="0.00" arrival="252.00" arrivalLane="1NS4_0" arrivalPos="196.00" arrivalSpeed="14.16" duration="224.00" routeLength="1494.49" waitingTime="57.00" waitingCount="4" stopTime="0.00" timeLoss="116.23" rerouteNo="4" devices="tripinfo_35" vType="Cartype" speedFactor="1.02" vaporized=""/>
    <tripinfo id="36" depart="33.00" departLane="2SN1_0" departPos="5.10" departSpeed="0.00" departDelay="4.00" arrival="254.00" arrivalLane="1NS4_0" arrivalPos="196.00" arrivalSpeed="13.45" duration="221.00" routeLength="1494.49" waitingTime="57.00" waitingCount="4" stopTime="0.00" timeLoss="108.76" rerouteNo="4" devices="tripinfo_36" vType="Cartype" speedFactor="0.97" vaporized=""/>
    <tripinfo id="112" depart="141.00" departLane="2OW1_0" departPos="5.10" departSpeed="0.00" departDelay="61.00" arrival="254.00" arrivalLane="3NS4_0" arrivalPos="196.00" arrivalSpeed="15.02" duration="113.00" routeLength="894.55" waitingTime="19.00" waitingCount="1" stopTime="0.00" timeLoss="53.61" rerouteNo="2" devices="tripinfo_112" vType="Cartype" speedFactor="1.10" vaporized=""/>
    <tripinfo id="41" depart="33.00" departLane="2NS1_0" departPos="5.10" departSpeed="0.00" departDelay="1.00" arrival="256.00" arrivalLane="3OW4_0" arrivalPos="196.00" arrivalSpeed="13.29" duration="223.00" routeLength="1477.21" waitingTime="56.00" waitingCount="3" stopTime="0.00" timeLoss="109.46" rerouteNo="4" devices="tripinfo_41" vType="Cartype" speedFactor="0.96" vaporized=""/>
    <tripinfo id="3" depart="2.00" departLane="2NS1_0" departPos="5.10" departSpeed="0.00" departDelay="0.00" arrival="257.00" arrivalLane="2NS4_0" arrivalPos="196.00" arrivalSpeed="14.80" duration="255.00" routeLength="2392.81" waitingTime="35.00" waitingCount="3" stopTime="0.00" timeLoss="93.49" rerouteNo="7" devices="tripinfo_3" vType="Cartype" speedFactor="1.08" vaporized=""/>