<?xml version="1.0" encoding="UTF-8"?>

<!-- generated on 01/21/20 16:10:44 by Eclipse SUMO Version 1.3.1
<configuration xmlns:xsi="http://www.w3.org/2001/XMLSchema-instance" xsi:noNamespaceSchemaLocation="http://sumo.dlr.de/xsd/sumoConfiguration.xsd">

    <input>
        <net-file value="Data/Cross_3_3.net.xml"/>
        <route-files value="Data/Cross12.rou.xml"/>
        <additional-files value="Data/rerouter.xml,Data/trafficLight.add.xml"/>
    </input>

    <output>
        <tripinfo-output value="tripinfo.xml"/>
    </output>

    <report>
        <log value="logfile.txt"/>
    </report>

    <traci_server>
        <remote-port value="6684"/>
    </traci_server>

</configuration>
-->

<tripinfos xmlns:xsi="http://www.w3.org/2001/XMLSchema-instance" xsi:noNamespaceSchemaLocation="http://sumo.dlr.de/xsd/tripinfo_file.xsd">
    <tripinfo id="10" depart="22.00" departLane="2SN1_0" departPos="5.10" departSpeed="0.00" departDelay="14.00" arrival="72.00" arrivalLane="3OW3_0" arrivalPos="92.00" arrivalSpeed="14.78" duration="50.00" routeLength="489.86" waitingTime="0.00" waitingCount="0" stopTime="0.00" timeLoss="16.51" rerouteNo="1" devices="tripinfo_10" vType="Cartype" speedFactor="1.09" vaporized=""/>
    <tripinfo id="7" depart="12.00" departLane="2NS1_0" departPos="5.10" departSpeed="0.00" departDelay="6.00" arrival="99.00" arrivalLane="1WO4_0" arrivalPos="196.00" arrivalSpeed="12.25" duration="87.00" routeLength="894.55" waitingTime="0.00" waitingCount="0" stopTime="0.00" timeLoss="13.35" rerouteNo="2" devices="tripinfo_7" vType="Cartype" speedFactor="0.89" vaporized=""/>
    <tripinfo id="34" depart="59.00" departLane="2SN1_0" departPos="5.10" departSpeed="0.00" departDelay="34.00" arrival="109.00" arrivalLane="3OW3_0" arrivalPos="92.00" arrivalSpeed="13.60" duration="50.00" routeLength="489.86" waitingTime="0.00" waitingCount="0" stopTime="0.00" timeLoss="13.35" rerouteNo="1" devices="tripinfo_34" vType="Cartype" speedFactor="0.99" vaporized=""/>
    <tripinfo id="9" depart="17.00" departLane="2SN1_0" departPos="5.10" departSpeed="0.00" departDelay="10.00" arrival="120.00" arrivalLane="3WO4_0" arrivalPos="196.00" arrivalSpeed="11.80" duration="103.00" routeLength="886.92" waitingTime="4.00" waitingCount="1" stopTime="0.00" timeLoss="27.71" rerouteNo="2" devices="tripinfo_9" vType="Cartype" speedFactor="0.86" vaporized=""/>
    <tripinfo id="21" depart="15.00" departLane="2WO1_0" departPos="5.10" departSpeed="0.00" departDelay="1.00" arrival="123.00" arrivalLane="1SN4_0" arrivalPos="196.00" arrivalSpeed="14.00" duration="108.00" routeLength="894.55" waitingTime="11.00" waitingCount="1" stopTime="0.00" timeLoss="43.23" rerouteNo="2" devices="tripinfo_21" vType="Cartype" speedFactor="1.01" vaporized=""/>
    <tripinfo id="33" depart="33.00" departLane="2OW1_0" departPos="5.10" departSpeed="0.00" departDelay="9.00" arrival="125.00" arrivalLane="2SN4_0" arrivalPos="196.00" arrivalSpeed="16.13" duration="92.00" routeLength="1187.61" waitingTime="0.00" waitingCount="0" stopTime="0.00" timeLoss="17.93" rerouteNo="3" devices="tripinfo_33" vType="Cartype" speedFactor="1.17" vaporized=""/>
    <tripinfo id="24" depart="30.00" departLane="2WO1_0" departPos="5.10" departSpeed="0.00" departDelay="13.00" arrival="128.00" arrivalLane="1SN4_0" arrivalPos="196.00" arrivalSpeed="11.46" duration="98.00" routeLength="894.55" waitingTime="0.00" waitingCount="0" stopTime="0.00" timeLoss="18.77" rerouteNo="2" devices="tripinfo_24" vType="Cartype" speedFactor="0.83" vaporized=""/>
    <tripinfo id="41" depart="50.00" departLane="2WO1_0" departPos="5.10" departSpeed="0.00" departDelay="23.00" arrival="135.00" arrivalLane="1SN4_0" arrivalPos="196.00" arrivalSpeed="12.94" duration="85.00" routeLength="894.55" waitingTime="0.00" waitingCount="0" stopTime="0.00" timeLoss="16.41" rerouteNo="2" devices="tripinfo_41" vType="Cartype" speedFactor="0.96" vaporized=""/>
    <tripinfo id="0" depart="0.00" departLane="2OW1_0" departPos="5.10" departSpeed="0.00" departDelay="0.00" arrival="151.00" arrivalLane="2OW4_0" arrivalPos="196.00" arrivalSpeed="14.64" duration="151.00" routeLength="1197.26" waitingTime="29.00" waitingCount="2" stopTime="0.00" timeLoss="68.99" rerouteNo="3" devices="tripinfo_0" vType="Cartype" speedFactor="1.06" vaporized=""/>
    <tripinfo id="4" depart="5.00" departLane="2WO1_0" departPos="5.10" departSpeed="0.00" departDelay="0.00" arrival="152.00" arrivalLane="3OW4_0" arrivalPos="196.00" arrivalSpeed="14.05" duration="147.00" routeLength="877.56" waitingTime="57.00" waitingCount="1" stopTime="0.00" timeLoss="83.54" rerouteNo="2" devices="tripinfo_4" vType="Cartype" speedFactor="1.03" vaporized=""/>
    <tripinfo id="22" depart="20.00" departLane="2WO1_0" departPos="5.10" departSpeed="0.00" departDelay="5.00" arrival="160.00" arrivalLane="2NS4_0" arrivalPos="196.00" arrivalSpeed="13.45" duration="140.00" routeLength="1187.61" waitingTime="21.00" waitingCount="1" stopTime="0.00" timeLoss="51.14" rerouteNo="3" devices="tripinfo_22" vType="Cartype" speedFactor="0.98" vaporized=""/>
    <tripinfo id="58" depart="74.00" departLane="2NS1_0" departPos="5.10" departSpeed="0.00" departDelay="33.00" arrival="161.00" arrivalLane="1OW4_0" arrivalPos="196.00" arrivalSpeed="14.07" duration="87.00" routeLength="886.92" waitingTime="0.00" waitingCount="0" stopTime="0.00" timeLoss="23.07" rerouteNo="2" devices="tripinfo_58" vType="Cartype" speedFactor="1.02" vaporized=""/>
    <tripinfo id="55" depart="58.00" departLane="2OW1_0" departPos="5.10" departSpeed="0.00" departDelay="21.00" arrival="163.00" arrivalLane="3WO4_0" arrivalPos="196.00" arrivalSpeed="13.65" duration="105.00" routeLength="892.82" waitingTime="10.00" waitingCount="1" stopTime="0.00" timeLoss="38.60" rerouteNo="2" devices="tripinfo_55" vType="Cartype" speedFactor="1.00" vaporized=""/>
    <tripinfo id="1" depart="2.00" departLane="2NS1_0" departPos="5.10" departSpeed="0.00" departDelay="0.00" arrival="167.00" arrivalLane="2NS4_0" arrivalPos="196.00" arrivalSpeed="12.80" duration="165.00" routeLength="1196.97" waitingTime="50.00" waitingCount="1" stopTime="0.00" timeLoss="72.92" rerouteNo="3" devices="tripinfo_1" vType="Cartype" speedFactor="0.94" vaporized=""/>
    <tripinfo id="8" depart="12.00" departLane="2SN1_0" departPos="5.10" departSpeed="0.00" departDelay="6.00" arrival="169.00" arrivalLane="2SN4_0" arrivalPos="196.00" arrivalSpeed="13.03" duration="157.00" routeLength="1196.97" waitingTime="40.00" waitingCount="1" stopTime="0.00" timeLoss="64.61" rerouteNo="3" devices="tripinfo_8" vType="Cartype" speedFactor="0.94" vaporized=""/>
    <tripinfo id="19" depart="38.00" departLane="2SN1_0" departPos="5.10" departSpeed="0.00" departDelay="24.00" arrival="171.00" arrivalLane="2SN4_0" arrivalPos="196.00" arrivalSpeed="14.23" duration="133.00" routeLength="1196.97" waitingTime="19.00" waitingCount="1" stopTime="0.00" timeLoss="57.78" rerouteNo="3" devices="tripinfo_19" vType="Cartype" speedFactor="1.16" vaporized=""/>
    <tripinfo id="18" depart="27.00" departLane="2NS1_0" departPos="5.10" departSpeed="0.00" departDelay="14.00" arrival="176.00" arrivalLane="2NS4_0" arrivalPos="196.00" arrivalSpeed="12.98" duration="149.00" routeLength="1196.97" waitingTime="33.00" waitingCount="1" stopTime="0.00" timeLoss="56.45" rerouteNo="3" devices="tripinfo_18" vType="Cartype" speedFactor="0.94" vaporized=""/>
    <tripinfo id="51" depart="58.00" departLane="2NS1_0" departPos="5.10" departSpeed="0.00" departDelay="22.00" arrival="176.00" arrivalLane="3SN4_0" arrivalPos="196.00" arrivalSpeed="15.92" duration="118.00" routeLength="892.82" waitingTime="17.00" waitingCount="2" stopTime="0.00" timeLoss="61.81" rerouteNo="2" devices="tripinfo_51" vType="Cartype" speedFactor="1.17" vaporized=""/>
    <tripinfo id="26" depart="32.00" departLane="2NS1_0" departPos="5.10" departSpeed="0.00" departDelay="12.00" arrival="178.00" arrivalLane="1WO4_0" arrivalPos="196.00" arrivalSpeed="12.48" duration="146.00" routeLength="894.55" waitingTime="51.00" waitingCount="1" stopTime="0.00" timeLoss="74.91" rerouteNo="2" devices="tripinfo_26" vType="Cartype" speedFactor="0.92" vaporized=""/>
    <tripinfo id="54" depart="85.00" departLane="2SN1_0" departPos="5.10" departSpeed="0.00" departDelay="48.00" arrival="178.00" arrivalLane="3OW3_0" arrivalPos="92.00" arrivalSpeed="13.89" duration="93.00" routeLength="489.86" waitingTime="24.00" waitingCount="3" stopTime="0.00" timeLoss="57.09" rerouteNo="1" devices="tripinfo_54" vType="Cartype" speedFactor="1.00" vaporized=""/>
    <tripinfo id="27" depart="37.00" departLane="2NS1_0" departPos="5.10" departSpeed="0.00" departDelay="15.00" arrival="180.00" arrivalLane="1WO4_0" arrivalPos="196.00" arrivalSpeed="12.81" duration="143.00" routeLength="894.55" waitingTime="48.00" waitingCount="1" stopTime="0.00" timeLoss="73.94" rerouteNo="2" devices="tripinfo_27" vType="Cartype" speedFactor="0.95" vaporized=""/>
    <tripinfo id="53" depart="64.00" departLane="2NS1_0" departPos="5.10" departSpeed="0.00" departDelay="27.00" arrival="180.00" arrivalLane="2WO4_0" arrivalPos="196.00" arrivalSpeed="14.99" duration="116.00" routeLength="1195.24" waitingTime="4.00" waitingCount="1" stopTime="0.00" timeLoss="36.68" rerouteNo="3" devices="tripinfo_53" vType="Cartype" speedFactor="1.10" vaporized=""/>
    <tripinfo id="52" depart="80.00" departLane="2SN1_0" departPos="5.10" departSpeed="0.00" departDelay="44.00" arrival="192.00" arrivalLane="3OW4_0" arrivalPos="196.00" arrivalSpeed="13.79" duration="112.00" routeLength="894.55" waitingTime="12.00" waitingCount="2" stopTime="0.00" timeLoss="47.40" rerouteNo="2" devices="tripinfo_52" vType="Cartype" speedFactor="1.02" vaporized=""/>
    <tripinfo id="11" depart="17.00" departLane="2NS1_0" departPos="5.10" departSpeed="0.00" departDelay="8.00" arrival="193.00" arrivalLane="3OW4_0" arrivalPos="196.00" arrivalSpeed="14.14" duration="176.00" routeLength="1488.30" waitingTime="40.00" waitingCount="1" stopTime="0.00" timeLoss="71.05" rerouteNo="4" devices="tripinfo_11" vType="Cartype" speedFactor="1.03" vaporized=""/>
    <tripinfo id="5" depart="5.00" departLane="2OW1_0" departPos="5.10" departSpeed="0.00" departDelay="0.00" arrival="194.00" arrivalLane="1SN4_0" arrivalPos="196.00" arrivalSpeed="11.20" duration="189.00" routeLength="1477.21" waitingTime="23.00" waitingCount="1" stopTime="0.00" timeLoss="58.12" rerouteNo="4" devices="tripinfo_5" vType="Cartype" speedFactor="0.83" vaporized=""/>
    <tripinfo id="84" depart="126.00" departLane="2SN1_0" departPos="5.10" departSpeed="0.00" departDelay="54.00" arrival="206.00" arrivalLane="3OW4_0" arrivalPos="196.00" arrivalSpeed="15.80" duration="80.00" routeLength="894.55" waitingTime="0.00" waitingCount="0" stopTime="0.00" timeLoss="23.21" rerouteNo="2" devices="tripinfo_84" vType="Cartype" speedFactor="1.15" vaporized=""/>
    <tripinfo id="106" depart="157.00" departLane="2SN1_0" departPos="5.10" departSpeed="0.00" departDelay="64.00" arrival="206.00" arrivalLane="3OW3_0" arrivalPos="92.00" arrivalSpeed="14.06" duration="49.00" routeLength="489.86" waitingTime="0.00" waitingCount="0" stopTime="0.00" timeLoss="13.48" rerouteNo="1" devices="tripinfo_106" vType="Cartype" speedFactor="1.01" vaporized=""/>
    <tripinfo id="45" depart="75.00" departLane="2SN1_0" departPos="5.10" departSpeed="0.00" departDelay="46.00" arrival="207.00" arrivalLane="3WO4_0" arrivalPos="196.00" arrivalSpeed="14.71" duration="132.00" routeLength="886.92" waitingTime="32.00" waitingCount="2" stopTime="0.00" timeLoss="71.99" rerouteNo="2" devices="tripinfo_45" vType="Cartype" speedFactor="1.09" vaporized=""/>
    <tripinfo id="63" depart="95.00" departLane="2SN1_0" departPos="5.10" departSpeed="0.00" departDelay="50.00" arrival="210.00" arrivalLane="3WO4_0" arrivalPos="196.00" arrivalSpeed="13.42" duration="115.00" routeLength="886.92" waitingTime="12.00" waitingCount="2" stopTime="0.00" timeLoss="49.41" rerouteNo="2" devices="tripinfo_63" vType="Cartype" speedFactor="0.99" vaporized=""/>
    <tripinfo id="13" depart="10.00" departLane="2OW1_0" departPos="5.10" departSpeed="0.00" departDelay="1.00" arrival="212.00" arrivalLane="1SN4_0" arrivalPos="196.00" arrivalSpeed="15.57" duration="202.00" routeLength="1488.59" waitingTime="37.00" waitingCount="2" stopTime="0.00" timeLoss="105.02" rerouteNo="4" devices="tripinfo_13" vType="Cartype" speedFactor="1.12" vaporized=""/>
    <tripinfo id="94" depart="112.00" departLane="2WO1_0" departPos="5.10" departSpeed="0.00" departDelay="32.00" arrival="213.00" arrivalLane="1OW4_0" arrivalPos="196.00" arrivalSpeed="14.88" duration="101.00" routeLength="892.82" waitingTime="0.00" waitingCount="0" stopTime="0.00" timeLoss="40.45" rerouteNo="2" devices="tripinfo_94" vType="Cartype" speedFactor="1.09" vaporized=""/>
    <tripinfo id="17" depart="15.00" departLane="2OW1_0" departPos="5.10" departSpeed="0.00" departDelay="3.00" arrival="216.00" arrivalLane="1SN4_0" arrivalPos="196.00" arrivalSpeed="12.82" duration="201.00" routeLength="1488.59" waitingTime="34.00" waitingCount="2" stopTime="0.00" timeLoss="85.89" rerouteNo="4" devices="tripinfo_17" vType="Cartype" speedFactor="0.94" vaporized=""/>
    <tripinfo id="47" depart="48.00" departLane="2OW1_0" departPos="5.10" departSpeed="0.00" departDelay="17.00" arrival="216.00" arrivalLane="3WO4_0" arrivalPos="196.00" arrivalSpeed="12.30" duration="168.00" routeLength="1494.20" waitingTime="23.00" waitingCount="1" stopTime="0.00" timeLoss="46.00" rerouteNo="4" devices="tripinfo_47" vType="Cartype" speedFactor="0.90" vaporized=""/>
    <tripinfo id="28" depart="54.00" departLane="2SN1_0" departPos="5.10" departSpeed="0.00" departDelay="32.00" arrival="217.00" arrivalLane="2SN4_0" arrivalPos="196.00" arrivalSpeed="15.33" duration="163.00" routeLength="1196.97" waitingTime="41.00" waitingCount="2" stopTime="0.00" timeLoss="86.75" rerouteNo="3" devices="tripinfo_28" vType="Cartype" speedFactor="1.13" vaporized=""/>
    <tripinfo id="71" depart="82.00" departLane="2WO1_0" departPos="5.10" departSpeed="0.00" departDelay="21.00" arrival="218.00" arrivalLane="1SN4_0" arrivalPos="196.00" arrivalSpeed="13.16" duration="136.00" routeLength="894.55" waitingTime="22.00" waitingCount="3" stopTime="0.00" timeLoss="68.34" rerouteNo="2" devices="tripinfo_71" vType="Cartype" speedFactor="0.97" vaporized=""/>
    <tripinfo id="6" depart="7.00" departLane="2NS1_0" departPos="5.10" departSpeed="0.00" departDelay="1.00" arrival="219.00" arrivalLane="1SN4_0" arrivalPos="196.00" arrivalSpeed="13.94" duration="212.00" routeLength="1479.23" waitingTime="57.00" waitingCount="2" stopTime="0.00" timeLoss="108.81" rerouteNo="4" devices="tripinfo_6" vType="Cartype" speedFactor="1.05" vaporized=""/>
    <tripinfo id="15" depart="22.00" departLane="2NS1_0" departPos="5.10" departSpeed="0.00" departDelay="11.00" arrival="219.00" arrivalLane="3NS4_0" arrivalPos="196.00" arrivalSpeed="12.78" duration="197.00" routeLength="1486.57" waitingTime="43.00" waitingCount="2" stopTime="0.00" timeLoss="80.14" rerouteNo="4" devices="tripinfo_15" vType="Cartype" speedFactor="0.93" vaporized=""/>
    <tripinfo id="38" depart="43.00" departLane="2OW1_0" departPos="5.10" departSpeed="0.00" departDelay="17.00" arrival="220.00" arrivalLane="2SN4_0" arrivalPos="196.00" arrivalSpeed="15.24" duration="177.00" routeLength="1187.61" waitingTime="58.00" waitingCount="1" stopTime="0.00" timeLoss="98.04" rerouteNo="3" devices="tripinfo_38" vType="Cartype" speedFactor="1.10" vaporized=""/>
    <tripinfo id="93" depart="107.00" departLane="2WO1_0" departPos="5.10" departSpeed="0.00" departDelay="27.00" arrival="222.00" arrivalLane="1SN4_0" arrivalPos="196.00" arrivalSpeed="12.72" duration="115.00" routeLength="894.55" waitingTime="3.00" waitingCount="2" stopTime="0.00" timeLoss="43.82" rerouteNo="2" devices="tripinfo_93" vType="Cartype" speedFactor="0.92" vaporized=""/>
    <tripinfo id="72" depart="88.00" departLane="2OW1_0" departPos="5.10" departSpeed="0.00" departDelay="27.00" arrival="223.00" arrivalLane="1WO4_0" arrivalPos="196.00" arrivalSpeed="12.84" duration="135.00" routeLength="877.56" waitingTime="30.00" waitingCount="2" stopTime="0.00" timeLoss="65.80" rerouteNo="2" devices="tripinfo_72" vType="Cartype" speedFactor="0.94" vaporized=""/>
    <tripinfo id="86" depart="104.00" departLane="2OW1_0" departPos="5.10" departSpeed="0.00" departDelay="30.00" arrival="225.00" arrivalLane="1WO4_0" arrivalPos="196.00" arrivalSpeed="13.80" duration="121.00" routeLength="877.56" waitingTime="18.00" waitingCount="1" stopTime="0.00" timeLoss="56.00" rerouteNo="2" devices="tripinfo_86" vType="Cartype" speedFactor="1.00" vaporized=""/>
    <tripinfo id="118" depart="144.00" departLane="2OW1_0" departPos="5.10" departSpeed="0.00" departDelay="40.00" arrival="225.00" arrivalLane="3SN4_0" arrivalPos="196.00" arrivalSpeed="13.46" duration="81.00" routeLength="886.92" waitingTime="0.00" waitingCount="0" stopTime="0.00" timeLoss="16.06" rerouteNo="2" devices="tripinfo_118" vType="Cartype" speedFactor="0.99" vaporized=""/>
    <tripinfo id="102" depart="129.00" departLane="2OW1_0" departPos="5.10" departSpeed="0.00" departDelay="42.00" arrival="227.00" arrivalLane="1WO4_0" arrivalPos="196.00" arrivalSpeed="13.42" duration="98.00" routeLength="877.56" waitingTime="3.00" waitingCount="1" stopTime="0.00" timeLoss="30.68" rerouteNo="2" devices="tripinfo_102" vType="Cartype" speedFactor="0.97" vaporized=""/>
    <tripinfo id="128" depart="155.00" departLane="2WO1_0" departPos="5.10" departSpeed="0.00" departDelay="44.00" arrival="235.00" arrivalLane="1OW4_0" arrivalPos="196.00" arrivalSpeed="15.16" duration="80.00" routeLength="892.82" waitingTime="0.00" waitingCount="0" stopTime="0.00" timeLoss="21.32" rerouteNo="2" devices="tripinfo_128" vType="Cartype" speedFactor="1.12" vaporized=""/>
    <tripinfo id="3" depart="7.00" departLane="2SN1_0" departPos="5.10" departSpeed="0.00" departDelay="4.00" arrival="236.00" arrivalLane="3SN4_0" arrivalPos="196.00" arrivalSpeed="14.69" duration="229.00" routeLength="1486.57" waitingTime="88.00" waitingCount="2" stopTime="0.00" timeLoss="128.19" rerouteNo="4" devices="tripinfo_3" vType="Cartype" speedFactor="1.08" vaporized=""/>
    <tripinfo id="20" depart="43.00" departLane="2SN1_0" departPos="5.10" departSpeed="0.00" departDelay="29.00" arrival="242.00" arrivalLane="2OW4_0" arrivalPos="196.00" arrivalSpeed="13.85" duration="199.00" routeLength="1195.53" waitingTime="65.00" waitingCount="3" stopTime="0.00" timeLoss="113.65" rerouteNo="3" devices="tripinfo_20" vType="Cartype" speedFactor="1.02" vaporized=""/>
    <tripinfo id="64" depart="80.00" departLane="2NS1_0" departPos="5.10" departSpeed="0.00" departDelay="30.00" arrival="242.00" arrivalLane="3SN4_0" arrivalPos="196.00" arrivalSpeed="12.85" duration="162.00" routeLength="1494.20" waitingTime="16.00" waitingCount="1" stopTime="0.00" timeLoss="45.31" rerouteNo="4" devices="tripinfo_64" vType="Cartype" speedFactor="0.94" vaporized=""/>
    <tripinfo id="80" depart="92.00" departLane="2WO1_0" departPos="5.10" departSpeed="0.00" departDelay="23.00" arrival="243.00" arrivalLane="3OW4_0" arrivalPos="196.00" arrivalSpeed="14.12" duration="151.00" routeLength="877.56" waitingTime="47.00" waitingCount="2" stopTime="0.00" timeLoss="87.68" rerouteNo="2" devices="tripinfo_80" vType="Cartype" speedFactor="1.03" vaporized=""/>
    <tripinfo id="57" depart="63.00" departLane="2OW1_0" departPos="5.10" departSpeed="0.00" departDelay="24.00" arrival="244.00" arrivalLane="2OW4_0" arrivalPos="196.00" arrivalSpeed="15.50" duration="181.00" routeLength="1197.26" waitingTime="54.00" waitingCount="2" stopTime="0.00" timeLoss="104.88" rerouteNo="3" devices="tripinfo_57" vType="Cartype" speedFactor="1.14" vaporized=""/>
    <tripinfo id="61" depart="68.00" departLane="2OW1_0" departPos="5.10" departSpeed="0.00" departDelay="24.00" arrival="245.00" arrivalLane="2OW4_0" arrivalPos="196.00" arrivalSpeed="15.47" duration="177.00" routeLength="1197.26" waitingTime="50.00" waitingCount="2" stopTime="0.00" timeLoss="99.87" rerouteNo="3" devices="tripinfo_61" vType="Cartype" speedFactor="1.12" vaporized=""/>
    <tripinfo id="89" depart="97.00" departLane="2WO1_0" departPos="5.10" departSpeed="0.00" departDelay="21.00" arrival="245.00" arrivalLane="3OW4_0" arrivalPos="196.00" arrivalSpeed="13.88" duration="148.00" routeLength="877.56" waitingTime="45.00" waitingCount="1" stopTime="0.00" timeLoss="83.67" rerouteNo="2" devices="tripinfo_89" vType="Cartype" speedFactor="1.02" vaporized=""/>
    <tripinfo id="31" depart="28.00" departLane="2OW1_0" departPos="5.10" departSpeed="0.00" departDelay="5.00" arrival="246.00" arrivalLane="1NS4_0" arrivalPos="196.00" arrivalSpeed="15.70" duration="218.00" routeLength="1496.22" waitingTime="64.00" waitingCount="3" stopTime="0.00" timeLoss="123.89" rerouteNo="4" devices="tripinfo_31" vType="Cartype" speedFactor="1.15" vaporized=""/>
    <tripinfo id="42" depart="55.00" departLane="2WO1_0" departPos="5.10" departSpeed="0.00" departDelay="27.00" arrival="247.00" arrivalLane="2NS4_0" arrivalPos="196.00" arrivalSpeed="14.81" duration="192.00" routeLength="1187.61" waitingTime="58.00" waitingCount="3" stopTime="0.00" timeLoss="112.44" rerouteNo="3" devices="tripinfo_42" vType="Cartype" speedFactor="1.09" vaporized=""/>
    <tripinfo id="99" depart="123.00" departLane="2WO1_0" departPos="5.10" departSpeed="0.00" departDelay="40.00" arrival="248.00" arrivalLane="1NS4_0" arrivalPos="196.00" arrivalSpeed="15.13" duration="125.00" routeLength="886.92" waitingTime="34.00" waitingCount="1" stopTime="0.00" timeLoss="66.24" rerouteNo="2" devices="tripinfo_99" vType="Cartype" speedFactor="1.10" vaporized=""/>
    <tripinfo id="95" depart="117.00" departLane="2WO1_0" departPos="5.10" departSpeed="0.00" departDelay="37.00" arrival="250.00" arrivalLane="2NS4_0" arrivalPos="196.00" arrivalSpeed="14.49" duration="133.00" routeLength="1187.61" waitingTime="17.00" waitingCount="2" stopTime="0.00" timeLoss="50.69" rerouteNo="3" devices="tripinfo_95" vType="Cartype" speedFactor="1.06" vaporized=""/>
    <tripinfo id="40" depart="45.00" departLane="2WO1_0" departPos="5.10" departSpeed="0.00" departDelay="18.00" arrival="251.00" arrivalLane="2WO4_0" arrivalPos="196.00" arrivalSpeed="13.97" duration="206.00" routeLength="1196.97" waitingTime="83.00" waitingCount="2" stopTime="0.00" timeLoss="122.06" rerouteNo="3" devices="tripinfo_40" vType="Cartype" speedFactor="1.03" vaporized=""/>
    <tripinfo id="101" depart="128.00" departLane="2WO1_0" departPos="5.10" departSpeed="0.00" departDelay="43.00" arrival="251.00" arrivalLane="3OW4_0" arrivalPos="196.00" arrivalSpeed="12.98" duration="123.00" routeLength="877.56" waitingTime="27.00" waitingCount="1" stopTime="0.00" timeLoss="54.95" rerouteNo="2" devices="tripinfo_101" vType="Cartype" speedFactor="0.96" vaporized=""/>
    <tripinfo id="92" depart="109.00" departLane="2OW1_0" departPos="5.10" departSpeed="0.00" departDelay="31.00" arrival="253.00" arrivalLane="2OW4_0" arrivalPos="196.00" arrivalSpeed="11.22" duration="144.00" routeLength="1197.26" waitingTime="9.00" waitingCount="1" stopTime="0.00" timeLoss="40.15" rerouteNo="3" devices="tripinfo_92" vType="Cartype" speedFactor="0.83" vaporized=""/>
    <tripinfo id="29" depart="35.00" departLane="2WO1_0" departPos="5.10" departSpeed="0.00" departDelay="13.00" arrival="254.00" arrivalLane="3NS4_0" arrivalPos="196.00" arrivalSpeed="12.61" duration="219.00" routeLength="1488.30" waitingTime="66.00" waitingCount="2" stopTime="0.00" timeLoss="102.65" rerouteNo="4" devices="tripinfo_29" vType="Cartype" speedFactor="0.93" vaporized=""/>
    <tripinfo id="16" depart="33.00" departLane="2SN1_0" departPos="5.10" departSpeed="0.00" departDelay="22.00" arrival="255.00" arrivalLane="3OW4_0" arrivalPos="196.00" arrivalSpeed="11.90" duration="222.00" routeLength="1485.13" waitingTime="50.00" waitingCount="3" stopTime="0.00" timeLoss="97.87" rerouteNo="4" devices="tripinfo_16" vType="Cartype" speedFactor="0.88" vaporized=""/>
    <tripinfo id="50" depart="53.00" departLane="2OW1_0" departPos="5.10" departSpeed="0.00" departDelay="18.00" arrival="255.00" arrivalLane="2NS4_0" arrivalPos="196.00" arrivalSpeed="11.71" duration="202.00" routeLength="1195.24" waitingTime="60.00" waitingCount="3" stopTime="0.00" timeLoss="99.82" rerouteNo="3" devices="tripinfo_50" vType="Cartype" speedFactor="0.85" vaporized=""/>
    <tripinfo id="79" depart="99.00" departLane="2OW1_0" departPos="5.10" departSpeed="0.00" departDelay="31.00" arrival="255.00" arrivalLane="3NS4_0" arrivalPos="196.00" arrivalSpeed="13.74" duration="156.00" routeLength="894.55" waitingTime="54.00" waitingCount="1" stopTime="0.00" timeLoss="96.05" rerouteNo="2" devices="tripinfo_79" vType="Cartype" speedFactor="1.09" vaporized=""/>
    <tripinfo id="100" depart="124.00" departLane="2OW1_0" departPos="5.10" departSpeed="0.00" departDelay="40.00" arrival="255.00" arrivalLane="2OW4_0" arrivalPos="196.00" arrivalSpeed="12.40" duration="131.00" routeLength="1197.26" waitingTime="10.00" waitingCount="1" stopTime="0.00" timeLoss="49.39" rerouteNo="3" devices="tripinfo_100" vType="Cartype" speedFactor="1.07" vaporized=""/>
    <tripinfo id="46" depart="60.00" departLane="2WO1_0" departPos="5.10" departSpeed="0.00" departDelay="29.00" arrival="256.00" arrivalLane="2WO4_0" arrivalPos="196.00" arrivalSpeed="13.55" duration="196.00" routeLength="1196.97" waitingTime="53.00" waitingCount="3" stopTime="0.00" timeLoss="108.66" rerouteNo="3" devices="tripinfo_46" vType="Cartype" speedFactor="1.00" vaporized=""/>
    <tripinfo id="73" depart="94.00" departLane="2OW1_0" departPos="5.10" departSpeed="0.00" departDelay="31.00" arrival="256.00" arrivalLane="2NS4_0" arrivalPos="196.00" arrivalSpeed="12.50" duration="162.00" routeLength="1195.24" waitingTime="22.00" waitingCount="3" stopTime="0.00" timeLoss="79.80" rerouteNo="3" devices="tripinfo_73" vType="Cartype" speedFactor="1.06" vaporized=""/>
    <tripinfo id="43" depart="48.00" departLane="2NS1_0" departPos="5.10" departSpeed="0.00" departDelay="19.00" arrival="257.00" arrivalLane="3NS4_0" arrivalPos="196.00" arrivalSpeed="14.25" duration="209.00" routeLength="1486.57" waitingTime="57.00" waitingCount="2" stopTime="0.00" timeLoss="104.15" rerouteNo="4" devices="tripinfo_43" vType="Cartype" speedFactor="1.04" vaporized=""/>
    <tripinfo id="37" depart="38.00" departLane="2OW1_0" departPos="5.10" departSpeed="0.00" departDelay="12.00" arrival="258.00" arrivalLane="1SN4_0" arrivalPos="196.00" arrivalSpeed="16.01" duration="220.00" routeLength="1477.21" waitingTime="75.00" waitingCount="3" stopTime="0.00" timeLoss="126.81" rerouteNo="4" devices="tripinfo_37" vType="Cartype" speedFactor="1.18" vaporized=""/>
    <tripinfo id="74" depart="96.00" departLane="2NS1_0" departPos="5.10" departSpeed="0.00" departDelay="32.00" arrival="258.00" arrivalLane="2OW4_0" arrivalPos="196.00" arrivalSpeed="13.05" duration="162.00" routeLength="1187.90" waitingTime="49.00" waitingCount="1" stopTime="0.00" timeLoss="71.36" rerouteNo="3" devices="tripinfo_74" vType="Cartype" speedFactor="0.96" vaporized=""/>
    <tripinfo id="82" depart="112.00" departLane="2NS1_0" departPos="5.10" departSpeed="0.00" departDelay="41.00" arrival="258.00" arrivalLane="1OW4_0" arrivalPos="196.00" arrivalSpeed="14.03" duration="146.00" routeLength="886.92" waitingTime="54.00" waitingCount="1" stopTime="0.00" timeLoss="82.60" rerouteNo="2" devices="tripinfo_82" vType="Cartype" speedFactor="1.02" vaporized=""/>
    <tripinfo id="98" depart="119.00" departLane="2OW1_0" departPos="5.10" departSpeed="0.00" departDelay="37.00" arrival="258.00" arrivalLane="2NS4_0" arrivalPos="196.00" arrivalSpeed="13.48" duration="139.00" routeLength="1195.24" waitingTime="4.00" waitingCount="1" stopTime="0.00" timeLoss="61.27" rerouteNo="3" devices="tripinfo_98" vType="Cartype" speedFactor="1.12" vaporized=""/>
    <tripinfo id="49" depart="71.00" departLane="2WO1_0" departPos="5.10" departSpeed="0.00" departDelay="37.00" arrival="260.00" arrivalLane="2WO4_0" arrivalPos="196.00" arrivalSpeed="11.78" duration="189.00" routeLength="1196.97" waitingTime="37.00" waitingCount="2" stopTime="0.00" timeLoss="87.25" rerouteNo="3" devices="tripinfo_49" vType="Cartype" speedFactor="0.85" vaporized=""/>
    <tripinfo id="110" depart="134.00" departLane="2OW1_0" departPos="5.10" departSpeed="0.00" departDelay="39.00" arrival="260.00" arrivalLane="2NS4_0" arrivalPos="196.00" arrivalSpeed="12.65" duration="126.00" routeLength="1195.24" waitingTime="4.00" waitingCount="1" stopTime="0.00" timeLoss="31.71" rerouteNo="3" devices="tripinfo_110" vType="Cartype" speedFactor="0.93" vaporized=""/>
    <tripinfo id="143" depart="169.00" departLane="2OW1_0" departPos="5.10" departSpeed="0.00" departDelay="46.00" arrival="260.00" arrivalLane="3NS4_0" arrivalPos="196.00" arrivalSpeed="15.44" duration="91.00" routeLength="894.55" waitingTime="1.00" waitingCount="1" stopTime="0.00" timeLoss="32.86" rerouteNo="2" devices="tripinfo_143" vType="Cartype" speedFactor="1.13" vaporized=""/>
    <tripinfo id="12" depart="10.00" departLane="2WO1_0" departPos="5.10" departSpeed="0.00" departDelay="1.00" arrival="261.00" arrivalLane="1OW4_0" arrivalPos="196.00" arrivalSpeed="14.32" duration="251.00" routeLength="1494.20" waitingTime="81.00" waitingCount="4" stopTime="0.00" timeLoss="146.31" rerouteNo="4" devices="tripinfo_12" vType="Cartype" speedFactor="1.05" vaporized=""/>
    <tripinfo id="39" depart="70.00" departLane="2SN1_0" departPos="5.10" departSpeed="0.00" departDelay="43.00" arrival="261.00" arrivalLane="2SN4_0" arrivalPos="196.00" arrivalSpeed="12.11" duration="191.00" routeLength="1196.97" waitingTime="61.00" waitingCount="2" stopTime="0.00" timeLoss="95.21" rerouteNo="3" devices="tripinfo_39" vType="Cartype" speedFactor="0.90" vaporized=""/>