<?xml version="1.0" encoding="UTF-8"?>

<!-- generated on 01/15/20 14:35:45 by Eclipse SUMO Version 1.3.1
<configuration xmlns:xsi="http://www.w3.org/2001/XMLSchema-instance" xsi:noNamespaceSchemaLocation="http://sumo.dlr.de/xsd/sumoConfiguration.xsd">

    <input>
        <net-file value="Data/Cross_1_3.net.xml"/>
        <route-files value="Data/Cross12.rou.xml"/>
        <additional-files value="Data/rerouter.xml,Data/trafficLight.add.xml"/>
    </input>

    <output>
        <tripinfo-output value="tripinfo.xml"/>
    </output>

    <report>
        <log value="logfile.txt"/>
    </report>

    <traci_server>
        <remote-port value="8730"/>
    </traci_server>

</configuration>
-->

<tripinfos xmlns:xsi="http://www.w3.org/2001/XMLSchema-instance" xsi:noNamespaceSchemaLocation="http://sumo.dlr.de/xsd/tripinfo_file.xsd">
    <tripinfo id="3" depart="53.00" departLane="1WO1_0" departPos="5.10" departSpeed="0.00" departDelay="0.00" arrival="105.00" arrivalLane="1SN2_0" arrivalPos="146.00" arrivalSpeed="14.93" duration="52.00" routeLength="543.86" waitingTime="0.00" waitingCount="0" stopTime="0.00" timeLoss="14.61" rerouteNo="1" devices="tripinfo_3" vType="Cartype" speedFactor="1.08" vaporized=""/>
    <tripinfo id="2" depart="45.00" departLane="1OW1_0" departPos="5.10" departSpeed="0.00" departDelay="0.00" arrival="115.00" arrivalLane="3SN2_0" arrivalPos="146.00" arrivalSpeed="13.71" duration="70.00" routeLength="486.23" waitingTime="10.00" waitingCount="1" stopTime="0.00" timeLoss="34.59" rerouteNo="1" devices="tripinfo_2" vType="Cartype" speedFactor="1.01" vaporized=""/>
    <tripinfo id="0" depart="34.00" departLane="1OW1_0" departPos="5.10" departSpeed="0.00" departDelay="0.00" arrival="198.00" arrivalLane="1SN2_0" arrivalPos="146.00" arrivalSpeed="14.56" duration="164.00" routeLength="1087.61" waitingTime="37.00" waitingCount="3" stopTime="0.00" timeLoss="89.33" rerouteNo="3" devices="tripinfo_0" vType="Cartype" speedFactor="1.06" vaporized=""/>
    <tripinfo id="4" depart="58.00" departLane="1OW1_0" departPos="5.10" departSpeed="0.00" departDelay="0.00" arrival="204.00" arrivalLane="1OW4_0" arrivalPos="196.00" arrivalSpeed="14.08" duration="146.00" routeLength="1146.97" waitingTime="13.00" waitingCount="2" stopTime="0.00" timeLoss="65.47" rerouteNo="3" devices="tripinfo_4" vType="Cartype" speedFactor="1.03" vaporized=""/>
    <tripinfo id="1" depart="40.00" departLane="1WO1_0" departPos="5.10" departSpeed="0.00" departDelay="0.00" arrival="212.00" arrivalLane="1WO4_0" arrivalPos="146.00" arrivalSpeed="12.83" duration="172.00" routeLength="1146.97" waitingTime="45.00" waitingCount="2" stopTime="0.00" timeLoss="83.66" rerouteNo="3" devices="tripinfo_1" vType="Cartype" speedFactor="0.94" vaporized=""/>
    <tripinfo id="8" depart="175.00" departLane="1WO1_0" departPos="5.10" departSpeed="0.00" departDelay="0.00" arrival="250.00" arrivalLane="1SN2_0" arrivalPos="146.00" arrivalSpeed="13.01" duration="75.00" routeLength="543.86" waitingTime="9.00" waitingCount="1" stopTime="0.00" timeLoss="31.55" rerouteNo="1" devices="tripinfo_8" vType="Cartype" speedFactor="0.94" vaporized=""/>
    <tripinfo id="11" depart="206.00" departLane="1WO1_0" departPos="5.10" departSpeed="0.00" departDelay="0.00" arrival="259.00" arrivalLane="1SN2_0" arrivalPos="146.00" arrivalSpeed="14.22" duration="53.00" routeLength="543.86" waitingTime="0.00" waitingCount="0" stopTime="0.00" timeLoss="13.51" rerouteNo="1" devices="tripinfo_11" vType="Cartype" speedFactor="1.03" vaporized=""/>
    <tripinfo id="9" depart="188.00" departLane="1OW1_0" departPos="5.10" departSpeed="0.00" departDelay="0.00" arrival="261.00" arrivalLane="3SN2_0" arrivalPos="146.00" arrivalSpeed="11.54" duration="73.00" routeLength="486.23" waitingTime="11.00" waitingCount="1" stopTime="0.00" timeLoss="31.17" rerouteNo="1" devices="tripinfo_9" vType="Cartype" speedFactor="0.86" vaporized=""/>
    <tripinfo id="5" depart="60.00" departLane="1WO1_0" departPos="5.10" departSpeed="0.00" departDelay="0.00" arrival="263.00" arrivalLane="1WO4_0" arrivalPos="146.00" arrivalSpeed="11.47" duration="203.00" routeLength="1146.97" waitingTime="60.00" waitingCount="3" stopTime="0.00" timeLoss="102.66" rerouteNo="3" devices="tripinfo_5" vType="Cartype" speedFactor="0.83" vaporized=""/>
    <tripinfo id="6" depart="65.00" departLane="1WO1_0" departPos="5.10" departSpeed="0.00" departDelay="0.00" arrival="264.00" arrivalLane="1WO4_0" arrivalPos="146.00" arrivalSpeed="12.31" duration="199.00" routeLength="1146.97" waitingTime="59.00" waitingCount="3" stopTime="0.00" timeLoss="119.76" rerouteNo="3" devices="tripinfo_6" vType="Cartype" speedFactor="1.05" vaporized=""/>
    <tripinfo id="10" depart="195.00" departLane="1OW1_0" departPos="5.10" departSpeed="0.00" departDelay="0.00" arrival="270.00" arrivalLane="3NS2_0" arrivalPos="146.00" arrivalSpeed="14.85" duration="75.00" routeLength="493.86" waitingTime="8.00" waitingCount="2" stopTime="0.00" timeLoss="41.11" rerouteNo="1" devices="tripinfo_10" vType="Cartype" speedFactor="1.09" vaporized=""/>
    <tripinfo id="7" depart="156.00" departLane="1WO1_0" departPos="5.10" departSpeed="0.00" departDelay="0.00" arrival="303.00" arrivalLane="2NS2_0" arrivalPos="146.00" arrivalSpeed="12.00" duration="147.00" routeLength="836.92" waitingTime="46.00" waitingCount="2" stopTime="0.00" timeLoss="78.02" rerouteNo="2" devices="tripinfo_7" vType="Cartype" speedFactor="0.89" vaporized=""/>
    <tripinfo id="15" depart="273.00" departLane="1OW1_0" departPos="5.10" departSpeed="0.00" departDelay="3.00" arrival="325.00" arrivalLane="3NS2_0" arrivalPos="146.00" arrivalSpeed="12.48" duration="52.00" routeLength="493.86" waitingTime="0.00" waitingCount="0" stopTime="0.00" timeLoss="12.72" rerouteNo="1" devices="tripinfo_15" vType="Cartype" speedFactor="0.93" vaporized=""/>
    <tripinfo id="14" depart="268.00" departLane="1OW1_0" departPos="5.10" departSpeed="0.00" departDelay="0.00" arrival="353.00" arrivalLane="2SN2_0" arrivalPos="146.00" arrivalSpeed="13.69" duration="85.00" routeLength="786.92" waitingTime="3.00" waitingCount="1" stopTime="0.00" timeLoss="26.61" rerouteNo="2" devices="tripinfo_14" vType="Cartype" speedFactor="0.99" vaporized=""/>
    <tripinfo id="16" depart="299.00" departLane="1OW1_0" departPos="5.10" departSpeed="0.00" departDelay="0.00" arrival="353.00" arrivalLane="3NS2_0" arrivalPos="146.00" arrivalSpeed="12.06" duration="54.00" routeLength="493.86" waitingTime="0.00" waitingCount="0" stopTime="0.00" timeLoss="12.63" rerouteNo="1" devices="tripinfo_16" vType="Cartype" speedFactor="0.88" vaporized=""/>
    <tripinfo id="13" depart="256.00" departLane="1OW1_0" departPos="5.10" departSpeed="0.00" departDelay="0.00" arrival="398.00" arrivalLane="1OW4_0" arrivalPos="196.00" arrivalSpeed="15.33" duration="142.00" routeLength="1146.97" waitingTime="25.00" waitingCount="2" stopTime="0.00" timeLoss="68.12" rerouteNo="3" devices="tripinfo_13" vType="Cartype" speedFactor="1.12" vaporized=""/>
    <tripinfo id="12" depart="231.00" departLane="1WO1_0" departPos="5.10" departSpeed="0.00" departDelay="0.00" arrival="407.00" arrivalLane="3NS2_0" arrivalPos="146.00" arrivalSpeed="14.37" duration="176.00" routeLength="1137.61" waitingTime="43.00" waitingCount="3" stopTime="0.00" timeLoss="96.95" rerouteNo="3" devices="tripinfo_12" vType="Cartype" speedFactor="1.05" vaporized=""/>
    <tripinfo id="19" depart="323.00" departLane="1OW1_0" departPos="5.10" departSpeed="0.00" departDelay="0.00" arrival="407.00" arrivalLane="3SN2_0" arrivalPos="146.00" arrivalSpeed="15.77" duration="84.00" routeLength="486.23" waitingTime="24.00" waitingCount="1" stopTime="0.00" timeLoss="52.19" rerouteNo="1" devices="tripinfo_19" vType="Cartype" speedFactor="1.16" vaporized=""/>
    <tripinfo id="21" depart="343.00" departLane="1OW1_0" departPos="5.10" departSpeed="0.00" departDelay="0.00" arrival="409.00" arrivalLane="3SN2_0" arrivalPos="146.00" arrivalSpeed="13.81" duration="66.00" routeLength="486.23" waitingTime="4.00" waitingCount="1" stopTime="0.00" timeLoss="29.97" rerouteNo="1" devices="tripinfo_21" vType="Cartype" speedFactor="1.01" vaporized=""/>
    <tripinfo id="17" depart="303.00" departLane="1WO1_0" departPos="5.10" departSpeed="0.00" departDelay="0.00" arrival="450.00" arrivalLane="2SN2_0" arrivalPos="146.00" arrivalSpeed="12.89" duration="147.00" routeLength="844.55" waitingTime="46.00" waitingCount="2" stopTime="0.00" timeLoss="80.88" rerouteNo="2" devices="tripinfo_17" vType="Cartype" speedFactor="0.94" vaporized=""/>
    <tripinfo id="20" depart="343.00" departLane="1WO1_0" departPos="5.10" departSpeed="0.00" departDelay="0.00" arrival="451.00" arrivalLane="2SN2_0" arrivalPos="146.00" arrivalSpeed="13.47" duration="108.00" routeLength="844.55" waitingTime="17.00" waitingCount="1" stopTime="0.00" timeLoss="47.52" rerouteNo="2" devices="tripinfo_20" vType="Cartype" speedFactor="1.02" vaporized=""/>
    <tripinfo id="18" depart="319.00" departLane="1WO1_0" departPos="5.10" departSpeed="0.00" departDelay="0.00" arrival="506.00" arrivalLane="1WO4_0" arrivalPos="146.00" arrivalSpeed="12.88" duration="187.00" routeLength="1146.97" waitingTime="49.00" waitingCount="3" stopTime="0.00" timeLoss="98.37" rerouteNo="3" devices="tripinfo_18" vType="Cartype" speedFactor="0.94" vaporized=""/>
    <tripinfo id="22" depart="393.00" departLane="1OW1_0" departPos="5.10" departSpeed="0.00" departDelay="0.00" arrival="542.00" arrivalLane="1SN2_0" arrivalPos="146.00" arrivalSpeed="13.36" duration="149.00" routeLength="1087.61" waitingTime="18.00" waitingCount="3" stopTime="0.00" timeLoss="67.81" rerouteNo="3" devices="tripinfo_22" vType="Cartype" speedFactor="0.98" vaporized=""/>
    <tripinfo id="25" depart="497.00" departLane="1OW1_0" departPos="5.10" departSpeed="0.00" departDelay="0.00" arrival="552.00" arrivalLane="3NS2_0" arrivalPos="146.00" arrivalSpeed="12.03" duration="55.00" routeLength="493.86" waitingTime="0.00" waitingCount="0" stopTime="0.00" timeLoss="13.66" rerouteNo="1" devices="tripinfo_25" vType="Cartype" speedFactor="0.87" vaporized=""/>
    <tripinfo id="23" depart="457.00" departLane="1OW1_0" departPos="5.10" departSpeed="0.00" departDelay="0.00" arrival="598.00" arrivalLane="1NS2_0" arrivalPos="146.00" arrivalSpeed="12.05" duration="141.00" routeLength="1095.24" waitingTime="12.00" waitingCount="2" stopTime="0.00" timeLoss="51.27" rerouteNo="3" devices="tripinfo_23" vType="Cartype" speedFactor="0.89" vaporized=""/>
    <tripinfo id="27" depart="508.00" departLane="1OW1_0" departPos="5.10" departSpeed="0.00" departDelay="0.00" arrival="604.00" arrivalLane="2NS2_0" arrivalPos="146.00" arrivalSpeed="13.06" duration="96.00" routeLength="794.55" waitingTime="6.00" waitingCount="2" stopTime="0.00" timeLoss="34.76" rerouteNo="2" devices="tripinfo_27" vType="Cartype" speedFactor="0.95" vaporized=""/>
    <tripinfo id="28" depart="579.00" departLane="1OW1_0" departPos="5.10" departSpeed="0.00" departDelay="0.00" arrival="651.00" arrivalLane="3SN2_0" arrivalPos="146.00" arrivalSpeed="15.48" duration="72.00" routeLength="486.23" waitingTime="13.00" waitingCount="1" stopTime="0.00" timeLoss="39.77" rerouteNo="1" devices="tripinfo_28" vType="Cartype" speedFactor="1.13" vaporized=""/>
    <tripinfo id="29" depart="595.00" departLane="1WO1_0" departPos="5.10" departSpeed="0.00" departDelay="0.00" arrival="651.00" arrivalLane="1SN2_0" arrivalPos="146.00" arrivalSpeed="12.92" duration="56.00" routeLength="543.86" waitingTime="0.00" waitingCount="0" stopTime="0.00" timeLoss="13.28" rerouteNo="1" devices="tripinfo_29" vType="Cartype" speedFactor="0.93" vaporized=""/>
    <tripinfo id="30" depart="599.00" departLane="1OW1_0" departPos="5.10" departSpeed="0.00" departDelay="0.00" arrival="652.00" arrivalLane="3SN2_0" arrivalPos="146.00" arrivalSpeed="16.07" duration="53.00" routeLength="486.23" waitingTime="0.00" waitingCount="0" stopTime="0.00" timeLoss="22.37" rerouteNo="1" devices="tripinfo_30" vType="Cartype" speedFactor="1.18" vaporized=""/>
    <tripinfo id="24" depart="495.00" departLane="1WO1_0" departPos="5.10" departSpeed="0.00" departDelay="0.00" arrival="655.00" arrivalLane="1WO4_0" arrivalPos="146.00" arrivalSpeed="11.25" duration="160.00" routeLength="1146.97" waitingTime="27.00" waitingCount="2" stopTime="0.00" timeLoss="59.04" rerouteNo="3" devices="tripinfo_24" vType="Cartype" speedFactor="0.83" vaporized=""/>
    <tripinfo id="32" depart="628.00" departLane="1WO1_0" departPos="5.10" departSpeed="0.00" departDelay="3.00" arrival="684.00" arrivalLane="1SN2_0" arrivalPos="146.00" arrivalSpeed="13.78" duration="56.00" routeLength="543.86" waitingTime="0.00" waitingCount="0" stopTime="0.00" timeLoss="15.87" rerouteNo="1" devices="tripinfo_32" vType="Cartype" speedFactor="1.01" vaporized=""/>
    <tripinfo id="26" depart="506.00" departLane="1WO1_0" departPos="5.10" departSpeed="0.00" departDelay="0.00" arrival="701.00" arrivalLane="3NS2_0" arrivalPos="146.00" arrivalSpeed="12.46" duration="195.00" routeLength="1137.61" waitingTime="59.00" waitingCount="3" stopTime="0.00" timeLoss="104.93" rerouteNo="3" devices="tripinfo_26" vType="Cartype" speedFactor="0.92" vaporized=""/>
    <tripinfo id="34" depart="646.00" departLane="1OW1_0" departPos="5.10" departSpeed="0.00" departDelay="0.00" arrival="706.00" arrivalLane="3NS2_0" arrivalPos="146.00" arrivalSpeed="13.46" duration="60.00" routeLength="493.86" waitingTime="1.00" waitingCount="1" stopTime="0.00" timeLoss="23.15" rerouteNo="1" devices="tripinfo_34" vType="Cartype" speedFactor="0.99" vaporized=""/>
    <tripinfo id="33" depart="630.00" departLane="1OW1_0" departPos="5.10" departSpeed="0.00" departDelay="0.00" arrival="742.00" arrivalLane="2SN2_0" arrivalPos="146.00" arrivalSpeed="16.00" duration="112.00" routeLength="786.92" waitingTime="20.00" waitingCount="2" stopTime="0.00" timeLoss="62.51" rerouteNo="2" devices="tripinfo_33" vType="Cartype" speedFactor="1.17" vaporized=""/>
    <tripinfo id="39" depart="719.00" departLane="1WO1_0" departPos="5.10" departSpeed="0.00" departDelay="0.00" arrival="788.00" arrivalLane="1NS2_0" arrivalPos="146.00" arrivalSpeed="12.20" duration="69.00" routeLength="536.23" waitingTime="3.00" waitingCount="1" stopTime="0.00" timeLoss="25.03" rerouteNo="1" devices="tripinfo_39" vType="Cartype" speedFactor="0.90" vaporized=""/>
    <tripinfo id="35" depart="650.00" departLane="1WO1_0" departPos="5.10" departSpeed="0.00" departDelay="0.00" arrival="792.00" arrivalLane="2NS2_0" arrivalPos="146.00" arrivalSpeed="14.03" duration="142.00" routeLength="836.92" waitingTime="45.00" waitingCount="2" stopTime="0.00" timeLoss="82.10" rerouteNo="2" devices="tripinfo_35" vType="Cartype" speedFactor="1.02" vaporized=""/>
    <tripinfo id="36" depart="659.00" departLane="1WO1_0" departPos="5.10" departSpeed="0.00" departDelay="0.00" arrival="795.00" arrivalLane="2NS2_0" arrivalPos="146.00" arrivalSpeed="13.18" duration="136.00" routeLength="836.92" waitingTime="35.00" waitingCount="2" stopTime="0.00" timeLoss="72.66" rerouteNo="2" devices="tripinfo_36" vType="Cartype" speedFactor="0.97" vaporized=""/>
    <tripinfo id="31" depart="623.00" departLane="1WO1_0" departPos="5.10" departSpeed="0.00" departDelay="0.00" arrival="798.00" arrivalLane="1WO4_0" arrivalPos="146.00" arrivalSpeed="15.80" duration="175.00" routeLength="1146.97" waitingTime="43.00" waitingCount="3" stopTime="0.00" timeLoss="102.65" rerouteNo="3" devices="tripinfo_31" vType="Cartype" speedFactor="1.15" vaporized=""/>
    <tripinfo id="40" depart="726.00" departLane="1OW1_0" departPos="5.10" departSpeed="0.00" departDelay="0.00" arrival="800.00" arrivalLane="3SN2_0" arrivalPos="146.00" arrivalSpeed="14.19" duration="74.00" routeLength="486.23" waitingTime="13.00" waitingCount="1" stopTime="0.00" timeLoss="38.81" rerouteNo="1" devices="tripinfo_40" vType="Cartype" speedFactor="1.03" vaporized=""/>
    <tripinfo id="38" depart="695.00" departLane="1OW1_0" departPos="5.10" departSpeed="0.00" departDelay="0.00" arrival="803.00" arrivalLane="2NS2_0" arrivalPos="146.00" arrivalSpeed="15.31" duration="108.00" routeLength="794.55" waitingTime="25.00" waitingCount="2" stopTime="0.00" timeLoss="55.46" rerouteNo="2" devices="tripinfo_38" vType="Cartype" speedFactor="1.10" vaporized=""/>
    <tripinfo id="41" depart="748.00" departLane="1NS1_0" departPos="5.10" departSpeed="0.00" departDelay="0.00" arrival="822.00" arrivalLane="1OW4_0" arrivalPos="196.00" arrivalSpeed="13.00" duration="74.00" routeLength="536.23" waitingTime="11.00" waitingCount="1" stopTime="0.00" timeLoss="32.46" rerouteNo="1" devices="tripinfo_41" vType="Cartype" speedFactor="0.96" vaporized=""/>
    <tripinfo id="42" depart="756.00" departLane="1OW1_0" departPos="5.10" departSpeed="0.00" departDelay="0.00" arrival="841.00" arrivalLane="2NS2_0" arrivalPos="146.00" arrivalSpeed="15.02" duration="85.00" routeLength="794.55" waitingTime="5.00" waitingCount="1" stopTime="0.00" timeLoss="31.95" rerouteNo="2" devices="tripinfo_42" vType="Cartype" speedFactor="1.09" vaporized=""/>
    <tripinfo id="37" depart="682.00" departLane="1WO1_0" departPos="5.10" departSpeed="0.00" departDelay="0.00" arrival="847.00" arrivalLane="1WO4_0" arrivalPos="146.00" arrivalSpeed="16.28" duration="165.00" routeLength="1146.97" waitingTime="36.00" waitingCount="2" stopTime="0.00" timeLoss="94.80" rerouteNo="3" devices="tripinfo_37" vType="Cartype" speedFactor="1.18" vaporized=""/>
    <tripinfo id="44" depart="782.00" departLane="1OW1_0" departPos="5.10" departSpeed="0.00" departDelay="0.00" arrival="856.00" arrivalLane="3NS2_0" arrivalPos="146.00" arrivalSpeed="14.29" duration="74.00" routeLength="493.86" waitingTime="8.00" waitingCount="2" stopTime="0.00" timeLoss="38.57" rerouteNo="1" devices="tripinfo_44" vType="Cartype" speedFactor="1.04" vaporized=""/>
    <tripinfo id="46" depart="804.00" departLane="1OW1_0" departPos="5.10" departSpeed="0.00" departDelay="0.00" arrival="858.00" arrivalLane="3NS2_0" arrivalPos="146.00" arrivalSpeed="13.79" duration="54.00" routeLength="493.86" waitingTime="0.00" waitingCount="0" stopTime="0.00" timeLoss="17.16" rerouteNo="1" devices="tripinfo_46" vType="Cartype" speedFactor="1.00" vaporized=""/>
    <tripinfo id="45" depart="801.00" departLane="1WO1_0" departPos="5.10" departSpeed="0.00" departDelay="0.00" arrival="885.00" arrivalLane="1NS2_0" arrivalPos="146.00" arrivalSpeed="14.80" duration="84.00" routeLength="536.23" waitingTime="21.00" waitingCount="1" stopTime="0.00" timeLoss="47.29" rerouteNo="1" devices="tripinfo_45" vType="Cartype" speedFactor="1.09" vaporized=""/>
    <tripinfo id="47" depart="818.00" departLane="1WO1_0" departPos="5.10" departSpeed="0.00" departDelay="0.00" arrival="887.00" arrivalLane="1SN2_0" arrivalPos="146.00" arrivalSpeed="12.49" duration="69.00" routeLength="543.86" waitingTime="1.00" waitingCount="1" stopTime="0.00" timeLoss="23.91" rerouteNo="1" devices="tripinfo_47" vType="Cartype" speedFactor="0.90" vaporized=""/>
    <tripinfo id="43" depart="768.00" departLane="1OW1_0" departPos="5.10" departSpeed="0.00" departDelay="0.00" arrival="890.00" arrivalLane="2NS2_0" arrivalPos="146.00" arrivalSpeed="14.13" duration="122.00" routeLength="794.55" waitingTime="28.00" waitingCount="2" stopTime="0.00" timeLoss="65.64" rerouteNo="2" devices="tripinfo_43" vType="Cartype" speedFactor="1.04" vaporized=""/>
    <tripinfo id="49" depart="871.00" departLane="1WO1_0" departPos="5.10" departSpeed="0.00" departDelay="0.00" arrival="955.00" arrivalLane="2SN2_0" arrivalPos="146.00" arrivalSpeed="11.65" duration="84.00" routeLength="844.55" waitingTime="0.00" waitingCount="0" stopTime="0.00" timeLoss="11.84" rerouteNo="2" devices="tripinfo_49" vType="Cartype" speedFactor="0.85" vaporized=""/>
    <tripinfo id="50" depart="926.00" departLane="1WO1_0" departPos="5.10" departSpeed="0.00" departDelay="0.00" arrival="984.00" arrivalLane="1SN2_0" arrivalPos="146.00" arrivalSpeed="11.80" duration="58.00" routeLength="543.86" waitingTime="0.00" waitingCount="0" stopTime="0.00" timeLoss="11.01" rerouteNo="1" devices="tripinfo_50" vType="Cartype" speedFactor="0.85" vaporized=""/>
    <tripinfo id="48" depart="868.00" departLane="1OW1_0" departPos="5.10" departSpeed="0.00" departDelay="0.00" arrival="989.00" arrivalLane="2SN2_0" arrivalPos="146.00" arrivalSpeed="11.89" duration="121.00" routeLength="786.92" waitingTime="20.00" waitingCount="2" stopTime="0.00" timeLoss="55.15" rerouteNo="2" devices="tripinfo_48" vType="Cartype" speedFactor="0.88" vaporized=""/>
    <tripinfo id="51" depart="939.00" departLane="1WO1_0" departPos="5.10" departSpeed="0.00" departDelay="0.00" arrival="994.00" arrivalLane="1SN2_0" arrivalPos="146.00" arrivalSpeed="15.97" duration="55.00" routeLength="543.86" waitingTime="0.00" waitingCount="0" stopTime="0.00" timeLoss="20.66" rerouteNo="1" devices="tripinfo_51" vType="Cartype" speedFactor="1.17" vaporized=""/>
    <tripinfo id="52" depart="944.00" departLane="1WO1_0" departPos="5.10" departSpeed="0.00" departDelay="2.00" arrival="997.00" arrivalLane="1SN2_0" arrivalPos="146.00" arrivalSpeed="14.10" duration="53.00" routeLength="543.86" waitingTime="0.00" waitingCount="0" stopTime="0.00" timeLoss="13.16" rerouteNo="1" devices="tripinfo_52" vType="Cartype" speedFactor="1.02" vaporized=""/>
    <tripinfo id="54" depart="957.00" departLane="1OW1_0" departPos="5.10" departSpeed="0.00" departDelay="0.00" arrival="1007.00" arrivalLane="3NS2_0" arrivalPos="146.00" arrivalSpeed="13.60" duration="50.00" routeLength="493.86" waitingTime="0.00" waitingCount="0" stopTime="0.00" timeLoss="13.93" rerouteNo="1" devices="tripinfo_54" vType="Cartype" speedFactor="1.00" vaporized=""/>
    <tripinfo id="55" depart="974.00" departLane="1OW1_0" departPos="5.10" departSpeed="0.00" departDelay="0.00" arrival="1044.00" arrivalLane="3SN2_0" arrivalPos="146.00" arrivalSpeed="13.71" duration="70.00" routeLength="486.23" waitingTime="9.00" waitingCount="1" stopTime="0.00" timeLoss="33.84" rerouteNo="1" devices="tripinfo_55" vType="Cartype" speedFactor="1.00" vaporized=""/>
    <tripinfo id="56" depart="995.00" departLane="1OW1_0" departPos="5.10" departSpeed="0.00" departDelay="0.00" arrival="1048.00" arrivalLane="3NS2_0" arrivalPos="146.00" arrivalSpeed="12.30" duration="53.00" routeLength="493.86" waitingTime="0.00" waitingCount="0" stopTime="0.00" timeLoss="12.11" rerouteNo="1" devices="tripinfo_56" vType="Cartype" speedFactor="0.90" vaporized=""/>
    <tripinfo id="57" depart="1002.00" departLane="1WO1_0" departPos="5.10" departSpeed="0.00" departDelay="0.00" arrival="1081.00" arrivalLane="1NS2_0" arrivalPos="146.00" arrivalSpeed="15.52" duration="79.00" routeLength="536.23" waitingTime="18.00" waitingCount="1" stopTime="0.00" timeLoss="43.97" rerouteNo="1" devices="tripinfo_57" vType="Cartype" speedFactor="1.14" vaporized=""/>
    <tripinfo id="53" depart="949.00" departLane="1OW1_0" departPos="5.10" departSpeed="0.00" departDelay="0.00" arrival="1084.00" arrivalLane="1OW4_0" arrivalPos="196.00" arrivalSpeed="15.01" duration="135.00" routeLength="1146.97" waitingTime="19.00" waitingCount="2" stopTime="0.00" timeLoss="59.01" rerouteNo="3" devices="tripinfo_53" vType="Cartype" speedFactor="1.10" vaporized=""/>
    <tripinfo id="58" depart="1027.00" departLane="1OW1_0" departPos="5.10" departSpeed="0.00" departDelay="0.00" arrival="1093.00" arrivalLane="3SN2_0" arrivalPos="146.00" arrivalSpeed="14.13" duration="66.00" routeLength="486.23" waitingTime="6.00" waitingCount="1" stopTime="0.00" timeLoss="30.61" rerouteNo="1" devices="tripinfo_58" vType="Cartype" speedFactor="1.02" vaporized=""/>
    <tripinfo id="61" depart="1075.00" departLane="1WO1_0" departPos="5.10" departSpeed="0.00" departDelay="0.00" arrival="1131.00" arrivalLane="1SN2_0" arrivalPos="146.00" arrivalSpeed="15.37" duration="56.00" routeLength="543.86" waitingTime="0.00" waitingCount="0" stopTime="0.00" timeLoss="20.45" rerouteNo="1" devices="tripinfo_61" vType="Cartype" speedFactor="1.12" vaporized=""/>
    <tripinfo id="59" depart="1041.00" departLane="1OW1_0" departPos="5.10" departSpeed="0.00" departDelay="0.00" arrival="1136.00" arrivalLane="2SN2_0" arrivalPos="146.00" arrivalSpeed="13.28" duration="95.00" routeLength="786.92" waitingTime="6.00" waitingCount="1" stopTime="0.00" timeLoss="35.30" rerouteNo="2" devices="tripinfo_59" vType="Cartype" speedFactor="0.97" vaporized=""/>
    <tripinfo id="60" depart="1057.00" departLane="1OW1_0" departPos="5.10" departSpeed="0.00" departDelay="0.00" arrival="1141.00" arrivalLane="3SN2_0" arrivalPos="146.00" arrivalSpeed="14.82" duration="84.00" routeLength="486.23" waitingTime="24.00" waitingCount="1" stopTime="0.00" timeLoss="50.72" rerouteNo="1" devices="tripinfo_60" vType="Cartype" speedFactor="1.08" vaporized=""/>
    <tripinfo id="62" depart="1093.00" departLane="1OW1_0" departPos="5.10" departSpeed="0.00" departDelay="0.00" arrival="1142.00" arrivalLane="3NS2_0" arrivalPos="146.00" arrivalSpeed="13.82" duration="49.00" routeLength="493.86" waitingTime="0.00" waitingCount="0" stopTime="0.00" timeLoss="12.88" rerouteNo="1" devices="tripinfo_62" vType="Cartype" speedFactor="1.02" vaporized=""/>
    <tripinfo id="64" depart="1331.00" departLane="1WO1_0" departPos="5.10" departSpeed="0.00" departDelay="3.00" arrival="1386.00" arrivalLane="1NS2_0" arrivalPos="146.00" arrivalSpeed="12.78" duration="55.00" routeLength="536.23" waitingTime="0.00" waitingCount="0" stopTime="0.00" timeLoss="13.24" rerouteNo="1" devices="tripinfo_64" vType="Cartype" speedFactor="0.94" vaporized=""/>
    <tripinfo id="66" depart="1371.00" departLane="1WO1_0" departPos="5.10" departSpeed="0.00" departDelay="0.00" arrival="1428.00" arrivalLane="1SN2_0" arrivalPos="146.00" arrivalSpeed="12.38" duration="57.00" routeLength="543.86" waitingTime="0.00" waitingCount="0" stopTime="0.00" timeLoss="12.30" rerouteNo="1" devices="tripinfo_66" vType="Cartype" speedFactor="0.91" vaporized=""/>
    <tripinfo id="63" depart="1326.00" departLane="1WO1_0" departPos="5.10" departSpeed="0.00" departDelay="0.00" arrival="1429.00" arrivalLane="2SN2_0" arrivalPos="146.00" arrivalSpeed="13.49" duration="103.00" routeLength="844.55" waitingTime="17.00" waitingCount="1" stopTime="0.00" timeLoss="40.19" rerouteNo="2" devices="tripinfo_63" vType="Cartype" speedFactor="0.99" vaporized=""/>
    <tripinfo id="67" depart="1378.00" departLane="1WO1_0" departPos="5.10" departSpeed="0.00" departDelay="0.00" arrival="1435.00" arrivalLane="1NS2_0" arrivalPos="146.00" arrivalSpeed="12.45" duration="57.00" routeLength="536.23" waitingTime="0.00" waitingCount="0" stopTime="0.00" timeLoss="13.88" rerouteNo="1" devices="tripinfo_67" vType="Cartype" speedFactor="0.91" vaporized=""/>
    <tripinfo id="65" depart="1367.00" departLane="1OW1_0" departPos="5.10" departSpeed="0.00" departDelay="0.00" arrival="1437.00" arrivalLane="3SN2_0" arrivalPos="146.00" arrivalSpeed="11.95" duration="70.00" routeLength="486.23" waitingTime="8.00" waitingCount="1" stopTime="0.00" timeLoss="29.30" rerouteNo="1" devices="tripinfo_65" vType="Cartype" speedFactor="0.88" vaporized=""/>
    <tripinfo id="68" depart="1400.00" departLane="1OW1_0" departPos="5.10" departSpeed="0.00" departDelay="0.00" arrival="1486.00" arrivalLane="3SN2_0" arrivalPos="146.00" arrivalSpeed="14.23" duration="86.00" routeLength="486.23" waitingTime="26.00" waitingCount="1" stopTime="0.00" timeLoss="50.99" rerouteNo="1" devices="tripinfo_68" vType="Cartype" speedFactor="1.04" vaporized=""/>
    <tripinfo id="69" depart="1445.00" departLane="1OW1_0" departPos="5.10" departSpeed="0.00" departDelay="0.00" arrival="1496.00" arrivalLane="3SN2_0" arrivalPos="146.00" arrivalSpeed="13.95" duration="51.00" routeLength="486.23" waitingTime="0.00" waitingCount="0" stopTime="0.00" timeLoss="14.94" rerouteNo="1" devices="tripinfo_69" vType="Cartype" speedFactor="1.02" vaporized=""/>
    <tripinfo id="72" depart="1479.00" departLane="1OW1_0" departPos="5.10" departSpeed="0.00" departDelay="0.00" arrival="1532.00" arrivalLane="3NS2_0" arrivalPos="146.00" arrivalSpeed="12.77" duration="53.00" routeLength="493.86" waitingTime="0.00" waitingCount="0" stopTime="0.00" timeLoss="13.62" rerouteNo="1" devices="tripinfo_72" vType="Cartype" speedFactor="0.94" vaporized=""/>
    <tripinfo id="70" depart="1447.00" departLane="1WO1_0" departPos="5.10" departSpeed="0.00" departDelay="0.00" arrival="1545.00" arrivalLane="2SN2_0" arrivalPos="146.00" arrivalSpeed="13.85" duration="98.00" routeLength="844.55" waitingTime="11.00" waitingCount="1" stopTime="0.00" timeLoss="37.00" rerouteNo="2" devices="tripinfo_70" vType="Cartype" speedFactor="1.02" vaporized=""/>
    <tripinfo id="75" depart="1495.00" departLane="1WO1_0" departPos="5.10" departSpeed="0.00" departDelay="0.00" arrival="1571.00" arrivalLane="1SN2_0" arrivalPos="146.00" arrivalSpeed="13.39" duration="76.00" routeLength="543.86" waitingTime="12.00" waitingCount="1" stopTime="0.00" timeLoss="35.42" rerouteNo="1" devices="tripinfo_75" vType="Cartype" speedFactor="0.98" vaporized=""/>
    <tripinfo id="71" depart="1452.00" departLane="1WO1_0" departPos="5.10" departSpeed="0.00" departDelay="2.00" arrival="1575.00" arrivalLane="2SN2_0" arrivalPos="146.00" arrivalSpeed="13.34" duration="123.00" routeLength="844.55" waitingTime="24.00" waitingCount="2" stopTime="0.00" timeLoss="59.77" rerouteNo="2" devices="tripinfo_71" vType="Cartype" speedFactor="0.97" vaporized=""/>
    <tripinfo id="73" depart="1484.00" departLane="1OW1_0" departPos="5.10" departSpeed="0.00" departDelay="4.00" arrival="1575.00" arrivalLane="2NS2_0" arrivalPos="146.00" arrivalSpeed="14.42" duration="91.00" routeLength="794.55" waitingTime="13.00" waitingCount="1" stopTime="0.00" timeLoss="35.79" rerouteNo="2" devices="tripinfo_73" vType="Cartype" speedFactor="1.06" vaporized=""/>