<?xml version="1.0" encoding="UTF-8"?>

<!-- generated on 11/23/19 17:26:20 by Eclipse SUMO Version 1.3.1
<configuration xmlns:xsi="http://www.w3.org/2001/XMLSchema-instance" xsi:noNamespaceSchemaLocation="http://sumo.dlr.de/xsd/sumoConfiguration.xsd">

    <input>
        <net-file value="Data/Cross_1_3.net.xml"/>
        <route-files value="Data/Cross12.rou.xml"/>
        <additional-files value="Data/rerouter.xml,Data/trafficLight.add.xml"/>
    </input>

    <output>
        <tripinfo-output value="tripinfo.xml"/>
    </output>

    <traci_server>
        <remote-port value="58770"/>
    </traci_server>

</configuration>
-->

<tripinfos xmlns:xsi="http://www.w3.org/2001/XMLSchema-instance" xsi:noNamespaceSchemaLocation="http://sumo.dlr.de/xsd/tripinfo_file.xsd">
    <tripinfo id="1" depart="2.00" departLane="1NS1_0" departPos="5.10" departSpeed="0.00" departDelay="0.00" arrival="84.00" arrivalLane="1NS2_0" arrivalPos="146.00" arrivalSpeed="12.81" duration="82.00" routeLength="495.59" waitingTime="22.00" waitingCount="1" stopTime="0.00" timeLoss="43.40" rerouteNo="1" devices="tripinfo_1" vType="typeWE" speedFactor="0.94" vaporized=""/>
    <tripinfo id="10" depart="16.00" departLane="1NS1_0" departPos="5.10" departSpeed="0.00" departDelay="0.00" arrival="87.00" arrivalLane="1OW4_0" arrivalPos="196.00" arrivalSpeed="15.09" duration="71.00" routeLength="536.23" waitingTime="10.00" waitingCount="1" stopTime="0.00" timeLoss="34.15" rerouteNo="1" devices="tripinfo_10" vType="typeWE" speedFactor="1.09" vaporized=""/>
    <tripinfo id="16" depart="25.00" departLane="1SN1_0" departPos="5.10" departSpeed="0.00" departDelay="1.00" arrival="87.00" arrivalLane="1SN2_0" arrivalPos="146.00" arrivalSpeed="11.88" duration="62.00" routeLength="495.59" waitingTime="0.00" waitingCount="0" stopTime="0.00" timeLoss="20.44" rerouteNo="1" devices="tripinfo_16" vType="typeWE" speedFactor="0.88" vaporized=""/>
    <tripinfo id="12" depart="18.00" departLane="2NS1_0" departPos="7.10" departSpeed="0.00" departDelay="0.00" arrival="89.00" arrivalLane="2NS2_0" arrivalPos="146.00" arrivalSpeed="14.42" duration="71.00" routeLength="493.59" waitingTime="12.00" waitingCount="1" stopTime="0.00" timeLoss="36.45" rerouteNo="1" devices="tripinfo_12" vType="typeNS" speedFactor="1.05" vaporized=""/>
    <tripinfo id="11" depart="21.00" departLane="1NS1_0" departPos="5.10" departSpeed="0.00" departDelay="5.00" arrival="90.00" arrivalLane="1OW4_0" arrivalPos="196.00" arrivalSpeed="14.15" duration="69.00" routeLength="536.23" waitingTime="6.00" waitingCount="1" stopTime="0.00" timeLoss="29.85" rerouteNo="1" devices="tripinfo_11" vType="typeWE" speedFactor="1.03" vaporized=""/>
    <tripinfo id="19" depart="28.00" departLane="3NS1_0" departPos="7.10" departSpeed="0.00" departDelay="0.00" arrival="93.00" arrivalLane="3NS2_0" arrivalPos="146.00" arrivalSpeed="15.86" duration="65.00" routeLength="493.59" waitingTime="6.00" waitingCount="1" stopTime="0.00" timeLoss="33.35" rerouteNo="1" devices="tripinfo_19" vType="typeNS" speedFactor="1.16" vaporized=""/>
    <tripinfo id="5" depart="11.00" departLane="3SN1_0" departPos="7.10" departSpeed="0.00" departDelay="5.00" arrival="96.00" arrivalLane="3SN2_0" arrivalPos="146.00" arrivalSpeed="11.18" duration="85.00" routeLength="493.59" waitingTime="20.00" waitingCount="1" stopTime="0.00" timeLoss="41.44" rerouteNo="1" devices="tripinfo_5" vType="typeNS" speedFactor="0.83" vaporized=""/>
    <tripinfo id="8" depart="23.00" departLane="3SN1_0" departPos="7.10" departSpeed="0.00" departDelay="11.00" arrival="98.00" arrivalLane="3SN2_0" arrivalPos="146.00" arrivalSpeed="12.59" duration="75.00" routeLength="493.59" waitingTime="12.00" waitingCount="1" stopTime="0.00" timeLoss="36.21" rerouteNo="1" devices="tripinfo_8" vType="typeNS" speedFactor="0.94" vaporized=""/>
    <tripinfo id="31" depart="45.00" departLane="3NS1_0" departPos="7.10" departSpeed="0.00" departDelay="0.00" arrival="103.00" arrivalLane="1WO4_0" arrivalPos="146.00" arrivalSpeed="15.65" duration="58.00" routeLength="491.86" waitingTime="0.00" waitingCount="0" stopTime="0.00" timeLoss="26.28" rerouteNo="1" devices="tripinfo_31" vType="typeNS" speedFactor="1.15" vaporized=""/>
    <tripinfo id="2" depart="4.00" departLane="2NS1_0" departPos="7.10" departSpeed="0.00" departDelay="0.00" arrival="112.00" arrivalLane="1OW4_0" arrivalPos="196.00" arrivalSpeed="13.97" duration="108.00" routeLength="834.92" waitingTime="25.00" waitingCount="1" stopTime="0.00" timeLoss="47.36" rerouteNo="2" devices="tripinfo_2" vType="typeNS" speedFactor="1.01" vaporized=""/>
    <tripinfo id="51" depart="77.00" departLane="1SN1_0" departPos="5.10" departSpeed="0.00" departDelay="0.00" arrival="120.00" arrivalLane="1SN2_0" arrivalPos="146.00" arrivalSpeed="16.22" duration="43.00" routeLength="495.59" waitingTime="0.00" waitingCount="0" stopTime="0.00" timeLoss="12.23" rerouteNo="1" devices="tripinfo_51" vType="typeWE" speedFactor="1.17" vaporized=""/>
    <tripinfo id="3" depart="5.00" departLane="2SN1_0" departPos="7.10" departSpeed="0.00" departDelay="0.00" arrival="123.00" arrivalLane="1WO4_0" arrivalPos="146.00" arrivalSpeed="14.66" duration="118.00" routeLength="784.92" waitingTime="26.00" waitingCount="2" stopTime="0.00" timeLoss="64.93" rerouteNo="2" devices="tripinfo_3" vType="typeNS" speedFactor="1.08" vaporized=""/>
    <tripinfo id="30" depart="45.00" departLane="1OW1_0" departPos="7.10" departSpeed="0.00" departDelay="0.00" arrival="123.00" arrivalLane="3SN2_0" arrivalPos="146.00" arrivalSpeed="16.14" duration="78.00" routeLength="484.23" waitingTime="20.00" waitingCount="1" stopTime="0.00" timeLoss="47.54" rerouteNo="1" devices="tripinfo_30" vType="typeNS" speedFactor="1.18" vaporized=""/>
    <tripinfo id="17" depart="26.00" departLane="2SN1_0" departPos="7.10" departSpeed="0.00" departDelay="0.00" arrival="127.00" arrivalLane="1WO4_0" arrivalPos="146.00" arrivalSpeed="12.95" duration="101.00" routeLength="784.92" waitingTime="5.00" waitingCount="2" stopTime="0.00" timeLoss="40.12" rerouteNo="2" devices="tripinfo_17" vType="typeNS" speedFactor="0.94" vaporized=""/>
    <tripinfo id="15" depart="26.00" departLane="1NS1_0" departPos="5.10" departSpeed="0.00" departDelay="3.00" arrival="134.00" arrivalLane="1NS2_0" arrivalPos="146.00" arrivalSpeed="12.71" duration="108.00" routeLength="495.59" waitingTime="38.00" waitingCount="2" stopTime="0.00" timeLoss="68.53" rerouteNo="1" devices="tripinfo_15" vType="typeWE" speedFactor="0.93" vaporized=""/>
    <tripinfo id="21" depart="31.00" departLane="1NS1_0" departPos="5.10" departSpeed="0.00" departDelay="0.00" arrival="135.00" arrivalLane="1NS2_0" arrivalPos="146.00" arrivalSpeed="13.11" duration="104.00" routeLength="495.59" waitingTime="35.00" waitingCount="1" stopTime="0.00" timeLoss="68.35" rerouteNo="1" devices="tripinfo_21" vType="typeWE" speedFactor="1.01" vaporized=""/>
    <tripinfo id="28" depart="43.00" departLane="2SN1_0" departPos="7.10" departSpeed="0.00" departDelay="0.00" arrival="136.00" arrivalLane="2SN2_0" arrivalPos="146.00" arrivalSpeed="15.33" duration="93.00" routeLength="493.59" waitingTime="33.00" waitingCount="1" stopTime="0.00" timeLoss="60.83" rerouteNo="1" devices="tripinfo_28" vType="typeNS" speedFactor="1.13" vaporized=""/>
    <tripinfo id="45" depart="68.00" departLane="1OW1_0" departPos="7.10" departSpeed="0.00" departDelay="0.00" arrival="136.00" arrivalLane="3NS2_0" arrivalPos="146.00" arrivalSpeed="14.88" duration="68.00" routeLength="491.86" waitingTime="8.00" waitingCount="1" stopTime="0.00" timeLoss="33.77" rerouteNo="1" devices="tripinfo_45" vType="typeNS" speedFactor="1.09" vaporized=""/>
    <tripinfo id="25" depart="42.00" departLane="2NS1_0" departPos="7.10" departSpeed="0.00" departDelay="6.00" arrival="137.00" arrivalLane="3SN2_0" arrivalPos="146.00" arrivalSpeed="12.08" duration="95.00" routeLength="790.82" waitingTime="3.00" waitingCount="1" stopTime="0.00" timeLoss="27.49" rerouteNo="2" devices="tripinfo_25" vType="typeNS" speedFactor="0.87" vaporized=""/>
    <tripinfo id="32" depart="49.00" departLane="2SN1_0" departPos="7.10" departSpeed="0.00" departDelay="3.00" arrival="139.00" arrivalLane="2SN2_0" arrivalPos="146.00" arrivalSpeed="13.63" duration="90.00" routeLength="493.59" waitingTime="29.00" waitingCount="1" stopTime="0.00" timeLoss="54.06" rerouteNo="1" devices="tripinfo_32" vType="typeNS" speedFactor="1.01" vaporized=""/>
    <tripinfo id="27" depart="43.00" departLane="1NS1_0" departPos="5.10" departSpeed="0.00" departDelay="0.00" arrival="140.00" arrivalLane="1OW4_0" arrivalPos="196.00" arrivalSpeed="12.97" duration="97.00" routeLength="536.23" waitingTime="31.00" waitingCount="1" stopTime="0.00" timeLoss="54.83" rerouteNo="1" devices="tripinfo_27" vType="typeWE" speedFactor="0.95" vaporized=""/>
    <tripinfo id="22" depart="36.00" departLane="2NS1_0" departPos="7.10" departSpeed="0.00" departDelay="4.00" arrival="141.00" arrivalLane="2NS2_0" arrivalPos="146.00" arrivalSpeed="13.26" duration="105.00" routeLength="493.59" waitingTime="36.00" waitingCount="1" stopTime="0.00" timeLoss="68.38" rerouteNo="1" devices="tripinfo_22" vType="typeNS" speedFactor="0.98" vaporized=""/>
    <tripinfo id="20" depart="30.00" departLane="3SN1_0" departPos="7.10" departSpeed="0.00" departDelay="0.00" arrival="142.00" arrivalLane="1WO4_0" arrivalPos="146.00" arrivalSpeed="13.98" duration="112.00" routeLength="484.23" waitingTime="45.00" waitingCount="2" stopTime="0.00" timeLoss="76.65" rerouteNo="1" devices="tripinfo_20" vType="typeNS" speedFactor="1.02" vaporized=""/>
    <tripinfo id="36" depart="51.00" departLane="3NS1_0" departPos="7.10" departSpeed="0.00" departDelay="0.00" arrival="142.00" arrivalLane="3NS2_0" arrivalPos="146.00" arrivalSpeed="13.36" duration="91.00" routeLength="493.59" waitingTime="32.00" waitingCount="1" stopTime="0.00" timeLoss="54.09" rerouteNo="1" devices="tripinfo_36" vType="typeNS" speedFactor="0.97" vaporized=""/>
    <tripinfo id="33" depart="48.00" departLane="3SN1_0" departPos="7.10" departSpeed="0.00" departDelay="2.00" arrival="145.00" arrivalLane="1WO4_0" arrivalPos="146.00" arrivalSpeed="16.02" duration="97.00" routeLength="484.23" waitingTime="37.00" waitingCount="1" stopTime="0.00" timeLoss="66.16" rerouteNo="1" devices="tripinfo_33" vType="typeNS" speedFactor="1.17" vaporized=""/>
    <tripinfo id="26" depart="42.00" departLane="3SN1_0" departPos="7.10" departSpeed="0.00" departDelay="0.00" arrival="146.00" arrivalLane="3SN2_0" arrivalPos="146.00" arrivalSpeed="12.50" duration="104.00" routeLength="493.59" waitingTime="38.00" waitingCount="1" stopTime="0.00" timeLoss="64.62" rerouteNo="1" devices="tripinfo_26" vType="typeNS" speedFactor="0.92" vaporized=""/>
    <tripinfo id="42" depart="64.00" departLane="1SN1_0" departPos="5.10" departSpeed="0.00" departDelay="0.00" arrival="146.00" arrivalLane="1OW4_0" arrivalPos="196.00" arrivalSpeed="14.91" duration="82.00" routeLength="543.86" waitingTime="12.00" waitingCount="2" stopTime="0.00" timeLoss="45.22" rerouteNo="1" devices="tripinfo_42" vType="typeWE" speedFactor="1.09" vaporized=""/>
    <tripinfo id="4" depart="5.00" departLane="3SN1_0" departPos="7.10" departSpeed="0.00" departDelay="0.00" arrival="158.00" arrivalLane="1SN2_0" arrivalPos="146.00" arrivalSpeed="13.96" duration="153.00" routeLength="1083.88" waitingTime="35.00" waitingCount="2" stopTime="0.00" timeLoss="75.55" rerouteNo="3" devices="tripinfo_4" vType="typeNS" speedFactor="1.03" vaporized=""/>
    <tripinfo id="41" depart="65.00" departLane="1WO1_0" departPos="7.10" departSpeed="0.00" departDelay="4.00" arrival="159.00" arrivalLane="1NS2_0" arrivalPos="146.00" arrivalSpeed="13.18" duration="94.00" routeLength="534.23" waitingTime="28.00" waitingCount="1" stopTime="0.00" timeLoss="52.62" rerouteNo="1" devices="tripinfo_41" vType="typeNS" speedFactor="0.96" vaporized=""/>
    <tripinfo id="38" depart="53.00" departLane="1WO1_0" departPos="7.10" departSpeed="0.00" departDelay="0.00" arrival="160.00" arrivalLane="2NS2_0" arrivalPos="146.00" arrivalSpeed="15.13" duration="107.00" routeLength="834.92" waitingTime="11.00" waitingCount="1" stopTime="0.00" timeLoss="51.23" rerouteNo="2" devices="tripinfo_38" vType="typeNS" speedFactor="1.10" vaporized=""/>
    <tripinfo id="9" depart="15.00" departLane="2SN1_0" departPos="7.10" departSpeed="0.00" departDelay="0.00" arrival="163.00" arrivalLane="1OW4_0" arrivalPos="196.00" arrivalSpeed="11.79" duration="148.00" routeLength="842.55" waitingTime="38.00" waitingCount="3" stopTime="0.00" timeLoss="75.76" rerouteNo="2" devices="tripinfo_9" vType="typeNS" speedFactor="0.86" vaporized=""/>
    <tripinfo id="57" depart="88.00" departLane="1WO1_0" departPos="7.10" departSpeed="0.00" departDelay="5.00" arrival="166.00" arrivalLane="1SN2_0" arrivalPos="146.00" arrivalSpeed="15.72" duration="78.00" routeLength="541.86" waitingTime="9.00" waitingCount="2" stopTime="0.00" timeLoss="42.74" rerouteNo="1" devices="tripinfo_57" vType="typeNS" speedFactor="1.14" vaporized=""/>
    <tripinfo id="60" depart="86.00" departLane="1SN1_0" departPos="5.10" departSpeed="0.00" departDelay="0.00" arrival="169.00" arrivalLane="2SN2_0" arrivalPos="146.00" arrivalSpeed="14.99" duration="83.00" routeLength="785.19" waitingTime="0.00" waitingCount="0" stopTime="0.00" timeLoss="28.58" rerouteNo="2" devices="tripinfo_60" vType="typeWE" speedFactor="1.08" vaporized=""/>
    <tripinfo id="0" depart="0.00" departLane="1WO1_0" departPos="7.10" departSpeed="0.00" departDelay="0.00" arrival="174.00" arrivalLane="1WO4_0" arrivalPos="146.00" arrivalSpeed="14.36" duration="174.00" routeLength="1144.97" waitingTime="54.00" waitingCount="2" stopTime="0.00" timeLoss="95.53" rerouteNo="3" devices="tripinfo_0" vType="typeNS" speedFactor="1.06" vaporized=""/>
    <tripinfo id="13" depart="20.00" departLane="1SN1_0" departPos="5.10" departSpeed="0.00" departDelay="0.00" arrival="176.00" arrivalLane="1WO4_0" arrivalPos="146.00" arrivalSpeed="15.20" duration="156.00" routeLength="1087.61" waitingTime="33.00" waitingCount="2" stopTime="0.00" timeLoss="84.80" rerouteNo="3" devices="tripinfo_13" vType="typeWE" speedFactor="1.12" vaporized=""/>
    <tripinfo id="34" depart="48.00" departLane="1NS1_0" departPos="5.10" departSpeed="0.00" departDelay="1.00" arrival="182.00" arrivalLane="1NS2_0" arrivalPos="146.00" arrivalSpeed="13.48" duration="134.00" routeLength="495.59" waitingTime="64.00" waitingCount="2" stopTime="0.00" timeLoss="97.18" rerouteNo="1" devices="tripinfo_34" vType="typeWE" speedFactor="0.99" vaporized=""/>
    <tripinfo id="63" depart="91.00" departLane="1SN1_0" departPos="5.10" departSpeed="0.00" departDelay="3.00" arrival="182.00" arrivalLane="1SN2_0" arrivalPos="146.00" arrivalSpeed="13.42" duration="91.00" routeLength="495.59" waitingTime="30.00" waitingCount="1" stopTime="0.00" timeLoss="54.37" rerouteNo="1" devices="tripinfo_63" vType="typeWE" speedFactor="0.99" vaporized=""/>
    <tripinfo id="35" depart="53.00" departLane="1NS1_0" departPos="5.10" departSpeed="0.00" departDelay="2.00" arrival="183.00" arrivalLane="1NS2_0" arrivalPos="146.00" arrivalSpeed="13.85" duration="130.00" routeLength="495.59" waitingTime="62.00" waitingCount="2" stopTime="0.00" timeLoss="94.85" rerouteNo="1" devices="tripinfo_35" vType="typeWE" speedFactor="1.02" vaporized=""/>
    <tripinfo id="72" depart="104.00" departLane="1SN1_0" departPos="5.10" departSpeed="0.00" departDelay="0.00" arrival="185.00" arrivalLane="1SN2_0" arrivalPos="146.00" arrivalSpeed="12.67" duration="81.00" routeLength="495.59" waitingTime="18.00" waitingCount="1" stopTime="0.00" timeLoss="42.46" rerouteNo="1" devices="tripinfo_72" vType="typeWE" speedFactor="0.94" vaporized=""/>
    <tripinfo id="77" depart="112.00" departLane="1SN1_0" departPos="5.10" departSpeed="0.00" departDelay="0.00" arrival="186.00" arrivalLane="1SN2_0" arrivalPos="146.00" arrivalSpeed="13.48" duration="74.00" routeLength="495.59" waitingTime="12.00" waitingCount="1" stopTime="0.00" timeLoss="37.66" rerouteNo="1" devices="tripinfo_77" vType="typeWE" speedFactor="0.98" vaporized=""/>
    <tripinfo id="64" depart="90.00" departLane="2SN1_0" departPos="7.10" departSpeed="0.00" departDelay="0.00" arrival="187.00" arrivalLane="2SN2_0" arrivalPos="146.00" arrivalSpeed="12.65" duration="97.00" routeLength="493.59" waitingTime="34.00" waitingCount="1" stopTime="0.00" timeLoss="58.18" rerouteNo="1" devices="tripinfo_64" vType="typeNS" speedFactor="0.94" vaporized=""/>
    <tripinfo id="59" depart="88.00" departLane="2NS1_0" departPos="7.10" departSpeed="0.00" departDelay="4.00" arrival="189.00" arrivalLane="2NS2_0" arrivalPos="146.00" arrivalSpeed="13.45" duration="101.00" routeLength="493.59" waitingTime="33.00" waitingCount="1" stopTime="0.00" timeLoss="63.58" rerouteNo="1" devices="tripinfo_59" vType="typeNS" speedFactor="0.97" vaporized=""/>
    <tripinfo id="67" depart="98.00" departLane="1NS1_0" departPos="5.10" departSpeed="0.00" departDelay="0.00" arrival="189.00" arrivalLane="1OW4_0" arrivalPos="196.00" arrivalSpeed="12.43" duration="91.00" routeLength="536.23" waitingTime="25.00" waitingCount="1" stopTime="0.00" timeLoss="47.92" rerouteNo="1" devices="tripinfo_67" vType="typeWE" speedFactor="0.91" vaporized=""/>
    <tripinfo id="37" depart="54.00" departLane="3SN1_0" departPos="7.10" departSpeed="0.00" departDelay="3.00" arrival="191.00" arrivalLane="3SN2_0" arrivalPos="146.00" arrivalSpeed="16.31" duration="137.00" routeLength="493.59" waitingTime="67.00" waitingCount="2" stopTime="0.00" timeLoss="106.08" rerouteNo="1" devices="tripinfo_37" vType="typeNS" speedFactor="1.18" vaporized=""/>
    <tripinfo id="43" depart="64.00" departLane="3SN1_0" departPos="7.10" departSpeed="0.00" departDelay="0.00" arrival="194.00" arrivalLane="3SN2_0" arrivalPos="146.00" arrivalSpeed="14.03" duration="130.00" routeLength="493.59" waitingTime="58.00" waitingCount="2" stopTime="0.00" timeLoss="95.35" rerouteNo="1" devices="tripinfo_43" vType="typeNS" speedFactor="1.04" vaporized=""/>
    <tripinfo id="52" depart="79.00" departLane="3SN1_0" departPos="7.10" departSpeed="0.00" departDelay="0.00" arrival="196.00" arrivalLane="3SN2_0" arrivalPos="146.00" arrivalSpeed="13.81" duration="117.00" routeLength="493.59" waitingTime="43.00" waitingCount="2" stopTime="0.00" timeLoss="81.69" rerouteNo="1" devices="tripinfo_52" vType="typeNS" speedFactor="1.02" vaporized=""/>
    <tripinfo id="48" depart="72.00" departLane="3SN1_0" departPos="7.10" departSpeed="0.00" departDelay="0.00" arrival="206.00" arrivalLane="2NS2_0" arrivalPos="146.00" arrivalSpeed="12.18" duration="134.00" routeLength="790.82" waitingTime="32.00" waitingCount="3" stopTime="0.00" timeLoss="67.50" rerouteNo="2" devices="tripinfo_48" vType="typeNS" speedFactor="0.88" vaporized=""/>
    <tripinfo id="14" depart="24.00" departLane="2NS1_0" departPos="7.10" departSpeed="0.00" departDelay="4.00" arrival="209.00" arrivalLane="1OW4_0" arrivalPos="196.00" arrivalSpeed="13.70" duration="185.00" routeLength="834.92" waitingTime="79.00" waitingCount="3" stopTime="0.00" timeLoss="123.45" rerouteNo="2" devices="tripinfo_14" vType="typeNS" speedFactor="0.99" vaporized=""/>
    <tripinfo id="44" depart="66.00" departLane="2SN1_0" departPos="7.10" departSpeed="0.00" departDelay="0.00" arrival="209.00" arrivalLane="1SN2_0" arrivalPos="146.00" arrivalSpeed="14.23" duration="143.00" routeLength="783.19" waitingTime="45.00" waitingCount="3" stopTime="0.00" timeLoss="87.37" rerouteNo="2" devices="tripinfo_44" vType="typeNS" speedFactor="1.04" vaporized=""/>
    <tripinfo id="50" depart="74.00" departLane="1OW1_0" departPos="7.10" departSpeed="0.00" departDelay="0.00" arrival="209.00" arrivalLane="2SN2_0" arrivalPos="146.00" arrivalSpeed="11.55" duration="135.00" routeLength="784.92" waitingTime="37.00" waitingCount="1" stopTime="0.00" timeLoss="67.19" rerouteNo="2" devices="tripinfo_50" vType="typeNS" speedFactor="0.85" vaporized=""/>
    <tripinfo id="18" depart="30.00" departLane="2NS1_0" departPos="7.10" departSpeed="0.00" departDelay="2.00" arrival="212.00" arrivalLane="1OW4_0" arrivalPos="196.00" arrivalSpeed="12.65" duration="182.00" routeLength="834.92" waitingTime="71.00" waitingCount="3" stopTime="0.00" timeLoss="116.40" rerouteNo="2" devices="tripinfo_18" vType="typeNS" speedFactor="0.94" vaporized=""/>
    <tripinfo id="29" depart="48.00" departLane="2NS1_0" departPos="7.10" departSpeed="0.00" departDelay="4.00" arrival="212.00" arrivalLane="1NS2_0" arrivalPos="146.00" arrivalSpeed="12.56" duration="164.00" routeLength="783.19" waitingTime="67.00" waitingCount="2" stopTime="0.00" timeLoss="101.94" rerouteNo="2" devices="tripinfo_29" vType="typeNS" speedFactor="0.93" vaporized=""/>
    <tripinfo id="55" depart="81.00" departLane="2SN1_0" departPos="7.10" departSpeed="0.00" departDelay="0.00" arrival="222.00" arrivalLane="3NS2_0" arrivalPos="146.00" arrivalSpeed="13.57" duration="141.00" routeLength="775.56" waitingTime="39.00" waitingCount="2" stopTime="0.00" timeLoss="83.37" rerouteNo="2" devices="tripinfo_55" vType="typeNS" speedFactor="1.00" vaporized=""/>
    <tripinfo id="39" depart="59.00" departLane="1WO1_0" departPos="7.10" departSpeed="0.00" departDelay="3.00" arrival="225.00" arrivalLane="2SN2_0" arrivalPos="146.00" arrivalSpeed="12.22" duration="166.00" routeLength="842.55" waitingTime="57.00" waitingCount="3" stopTime="0.00" timeLoss="97.71" rerouteNo="2" devices="tripinfo_39" vType="typeNS" speedFactor="0.90" vaporized=""/>
    <tripinfo id="56" depart="82.00" departLane="2NS1_0" departPos="7.10" departSpeed="0.00" departDelay="0.00" arrival="227.00" arrivalLane="1WO4_0" arrivalPos="146.00" arrivalSpeed="12.19" duration="145.00" routeLength="792.55" waitingTime="43.00" waitingCount="2" stopTime="0.00" timeLoss="80.02" rerouteNo="2" devices="tripinfo_56" vType="typeNS" speedFactor="0.90" vaporized=""/>
    <tripinfo id="115" depart="178.00" departLane="1OW1_0" departPos="7.10" departSpeed="0.00" departDelay="0.00" arrival="230.00" arrivalLane="3NS2_0" arrivalPos="146.00" arrivalSpeed="12.77" duration="52.00" routeLength="491.86" waitingTime="0.00" waitingCount="0" stopTime="0.00" timeLoss="12.67" rerouteNo="1" devices="tripinfo_115" vType="typeNS" speedFactor="0.92" vaporized=""/>
    <tripinfo id="76" depart="109.00" departLane="1NS1_0" departPos="5.10" departSpeed="0.00" departDelay="0.00" arrival="231.00" arrivalLane="1NS2_0" arrivalPos="146.00" arrivalSpeed="13.98" duration="122.00" routeLength="495.59" waitingTime="51.00" waitingCount="2" stopTime="0.00" timeLoss="86.53" rerouteNo="1" devices="tripinfo_76" vType="typeWE" speedFactor="1.03" vaporized=""/>
    <tripinfo id="97" depart="154.00" departLane="1SN1_0" departPos="5.10" departSpeed="0.00" departDelay="0.00" arrival="231.00" arrivalLane="1SN2_0" arrivalPos="146.00" arrivalSpeed="12.24" duration="77.00" routeLength="495.59" waitingTime="16.00" waitingCount="1" stopTime="0.00" timeLoss="37.33" rerouteNo="1" devices="tripinfo_97" vType="typeWE" speedFactor="0.91" vaporized=""/>
    <tripinfo id="86" depart="128.00" departLane="1NS1_0" departPos="5.10" departSpeed="0.00" departDelay="0.00" arrival="234.00" arrivalLane="1NS2_0" arrivalPos="146.00" arrivalSpeed="13.89" duration="106.00" routeLength="495.59" waitingTime="34.00" waitingCount="1" stopTime="0.00" timeLoss="70.20" rerouteNo="1" devices="tripinfo_86" vType="typeWE" speedFactor="1.00" vaporized=""/>
    <tripinfo id="62" depart="100.00" departLane="2NS1_0" departPos="7.10" departSpeed="0.00" departDelay="13.00" arrival="235.00" arrivalLane="2NS2_0" arrivalPos="146.00" arrivalSpeed="14.01" duration="135.00" routeLength="493.59" waitingTime="67.00" waitingCount="2" stopTime="0.00" timeLoss="99.27" rerouteNo="1" devices="tripinfo_62" vType="typeNS" speedFactor="1.02" vaporized=""/>
    <tripinfo id="82" depart="123.00" departLane="1NS1_0" departPos="5.10" departSpeed="0.00" departDelay="0.00" arrival="235.00" arrivalLane="1OW4_0" arrivalPos="196.00" arrivalSpeed="13.74" duration="112.00" routeLength="536.23" waitingTime="40.00" waitingCount="2" stopTime="0.00" timeLoss="72.83" rerouteNo="1" devices="tripinfo_82" vType="typeWE" speedFactor="1.02" vaporized=""/>
    <tripinfo id="91" depart="144.00" departLane="2SN1_0" departPos="7.10" departSpeed="0.00" departDelay="0.00" arrival="236.00" arrivalLane="2SN2_0" arrivalPos="146.00" arrivalSpeed="12.33" duration="92.00" routeLength="493.59" waitingTime="28.00" waitingCount="1" stopTime="0.00" timeLoss="51.21" rerouteNo="1" devices="tripinfo_91" vType="typeNS" speedFactor="0.89" vaporized=""/>
    <tripinfo id="71" depart="105.00" departLane="2NS1_0" departPos="7.10" departSpeed="0.00" departDelay="2.00" arrival="237.00" arrivalLane="2NS2_0" arrivalPos="146.00" arrivalSpeed="13.40" duration="132.00" routeLength="493.59" waitingTime="61.00" waitingCount="3" stopTime="0.00" timeLoss="95.05" rerouteNo="1" devices="tripinfo_71" vType="typeNS" speedFactor="0.97" vaporized=""/>
    <tripinfo id="80" depart="119.00" departLane="3SN1_0" departPos="7.10" departSpeed="0.00" departDelay="0.00" arrival="239.00" arrivalLane="1WO4_0" arrivalPos="146.00" arrivalSpeed="14.10" duration="120.00" routeLength="484.23" waitingTime="51.00" waitingCount="2" stopTime="0.00" timeLoss="85.57" rerouteNo="1" devices="tripinfo_80" vType="typeNS" speedFactor="1.03" vaporized=""/>
    <tripinfo id="92" depart="150.00" departLane="2SN1_0" departPos="7.10" departSpeed="0.00" departDelay="5.00" arrival="239.00" arrivalLane="2SN2_0" arrivalPos="146.00" arrivalSpeed="11.58" duration="89.00" routeLength="493.59" waitingTime="25.00" waitingCount="1" stopTime="0.00" timeLoss="45.81" rerouteNo="1" devices="tripinfo_92" vType="typeNS" speedFactor="0.83" vaporized=""/>
    <tripinfo id="94" depart="148.00" departLane="3NS1_0" departPos="7.10" departSpeed="0.00" departDelay="0.00" arrival="239.00" arrivalLane="3NS2_0" arrivalPos="146.00" arrivalSpeed="14.83" duration="91.00" routeLength="493.59" waitingTime="32.00" waitingCount="1" stopTime="0.00" timeLoss="58.41" rerouteNo="1" devices="tripinfo_94" vType="typeNS" speedFactor="1.09" vaporized=""/>
    <tripinfo id="89" depart="138.00" departLane="3SN1_0" departPos="7.10" departSpeed="0.00" departDelay="0.00" arrival="242.00" arrivalLane="3SN2_0" arrivalPos="146.00" arrivalSpeed="14.07" duration="104.00" routeLength="493.59" waitingTime="34.00" waitingCount="1" stopTime="0.00" timeLoss="68.41" rerouteNo="1" devices="tripinfo_89" vType="typeNS" speedFactor="1.02" vaporized=""/>
    <tripinfo id="100" depart="156.00" departLane="3NS1_0" departPos="7.10" departSpeed="0.00" departDelay="0.00" arrival="243.00" arrivalLane="3NS2_0" arrivalPos="146.00" arrivalSpeed="14.58" duration="87.00" routeLength="493.59" waitingTime="26.00" waitingCount="1" stopTime="0.00" timeLoss="52.95" rerouteNo="1" devices="tripinfo_100" vType="typeNS" speedFactor="1.07" vaporized=""/>
    <tripinfo id="93" depart="145.00" departLane="3SN1_0" departPos="7.10" departSpeed="0.00" departDelay="0.00" arrival="245.00" arrivalLane="3SN2_0" arrivalPos="146.00" arrivalSpeed="12.45" duration="100.00" routeLength="493.59" waitingTime="33.00" waitingCount="1" stopTime="0.00" timeLoss="60.78" rerouteNo="1" devices="tripinfo_93" vType="typeNS" speedFactor="0.92" vaporized=""/>
    <tripinfo id="114" depart="177.00" departLane="1SN1_0" departPos="5.10" departSpeed="0.00" departDelay="0.00" arrival="246.00" arrivalLane="1OW4_0" arrivalPos="196.00" arrivalSpeed="14.96" duration="69.00" routeLength="543.86" waitingTime="6.00" waitingCount="1" stopTime="0.00" timeLoss="31.97" rerouteNo="1" devices="tripinfo_114" vType="typeWE" speedFactor="1.10" vaporized=""/>
    <tripinfo id="113" depart="176.00" departLane="3NS1_0" departPos="7.10" departSpeed="0.00" departDelay="0.00" arrival="254.00" arrivalLane="1WO4_0" arrivalPos="146.00" arrivalSpeed="13.96" duration="78.00" routeLength="491.86" waitingTime="10.00" waitingCount="2" stopTime="0.00" timeLoss="41.26" rerouteNo="1" devices="tripinfo_113" vType="typeNS" speedFactor="1.01" vaporized=""/>
    <tripinfo id="122" depart="189.00" departLane="3NS1_0" departPos="7.10" departSpeed="0.00" departDelay="5.00" arrival="255.00" arrivalLane="1WO4_0" arrivalPos="146.00" arrivalSpeed="13.97" duration="66.00" routeLength="491.86" waitingTime="6.00" waitingCount="1" stopTime="0.00" timeLoss="30.94" rerouteNo="1" devices="tripinfo_122" vType="typeNS" speedFactor="1.03" vaporized=""/>
    <tripinfo id="83" depart="124.00" departLane="1WO1_0" departPos="7.10" departSpeed="0.00" departDelay="0.00" arrival="257.00" arrivalLane="1NS2_0" arrivalPos="146.00" arrivalSpeed="13.23" duration="133.00" routeLength="534.23" waitingTime="58.00" waitingCount="2" stopTime="0.00" timeLoss="91.90" rerouteNo="1" devices="tripinfo_83" vType="typeNS" speedFactor="0.97" vaporized=""/>
    <tripinfo id="40" depart="56.00" departLane="1OW1_0" departPos="7.10" departSpeed="0.00" departDelay="0.00" arrival="258.00" arrivalLane="1SN2_0" arrivalPos="146.00" arrivalSpeed="14.27" duration="202.00" routeLength="1085.61" waitingTime="58.00" waitingCount="3" stopTime="0.00" timeLoss="125.03" rerouteNo="3" devices="tripinfo_40" vType="typeNS" speedFactor="1.03" vaporized=""/>
    <tripinfo id="98" depart="155.00" departLane="1WO1_0" departPos="7.10" departSpeed="0.00" departDelay="0.00" arrival="259.00" arrivalLane="1NS2_0" arrivalPos="146.00" arrivalSpeed="14.63" duration="104.00" routeLength="534.23" waitingTime="34.00" waitingCount="1" stopTime="0.00" timeLoss="68.45" rerouteNo="1" devices="tripinfo_98" vType="typeNS" speedFactor="1.12" vaporized=""/>