<?xml version="1.0" encoding="UTF-8"?>

<!-- generated on 03/06/20 09:30:37 by Eclipse SUMO Version 1.3.1
<configuration xmlns:xsi="http://www.w3.org/2001/XMLSchema-instance" xsi:noNamespaceSchemaLocation="http://sumo.dlr.de/xsd/sumoConfiguration.xsd">

    <input>
        <net-file value="Data/Cross_1_3.net.xml"/>
        <route-files value="Data/Cross12.rou.xml"/>
        <additional-files value="Data/rerouter.xml,Data/trafficLight.add.xml"/>
    </input>

    <output>
        <tripinfo-output value="tripinfo.xml"/>
    </output>

    <report>
        <log value="logfile.txt"/>
    </report>

    <traci_server>
        <remote-port value="13071"/>
    </traci_server>

</configuration>
-->

<tripinfos xmlns:xsi="http://www.w3.org/2001/XMLSchema-instance" xsi:noNamespaceSchemaLocation="http://sumo.dlr.de/xsd/tripinfo_file.xsd">
    <tripinfo id="3" depart="15.00" departLane="1OW1_0" departPos="5.10" departSpeed="0.00" departDelay="1.00" arrival="64.00" arrivalLane="3SN2_0" arrivalPos="146.00" arrivalSpeed="14.70" duration="49.00" routeLength="486.23" waitingTime="0.00" waitingCount="0" stopTime="0.00" timeLoss="15.03" rerouteNo="1" devices="tripinfo_3" vType="Cartype" speedFactor="1.08" vaporized=""/>
    <tripinfo id="2" depart="19.00" departLane="1WO1_0" departPos="5.10" departSpeed="0.00" departDelay="5.00" arrival="71.00" arrivalLane="1SN2_0" arrivalPos="146.00" arrivalSpeed="13.93" duration="52.00" routeLength="543.86" waitingTime="0.00" waitingCount="0" stopTime="0.00" timeLoss="12.40" rerouteNo="1" devices="tripinfo_2" vType="Cartype" speedFactor="1.01" vaporized=""/>
    <tripinfo id="0" depart="10.00" departLane="1OW1_0" departPos="5.10" departSpeed="0.00" departDelay="0.00" arrival="106.00" arrivalLane="2NS2_0" arrivalPos="146.00" arrivalSpeed="14.44" duration="96.00" routeLength="794.55" waitingTime="15.00" waitingCount="1" stopTime="0.00" timeLoss="40.76" rerouteNo="2" devices="tripinfo_0" vType="Cartype" speedFactor="1.06" vaporized=""/>
    <tripinfo id="4" depart="23.00" departLane="1OW1_0" departPos="5.10" departSpeed="0.00" departDelay="0.00" arrival="108.00" arrivalLane="2NS2_0" arrivalPos="146.00" arrivalSpeed="14.27" duration="85.00" routeLength="794.55" waitingTime="4.00" waitingCount="1" stopTime="0.00" timeLoss="28.19" rerouteNo="2" devices="tripinfo_4" vType="Cartype" speedFactor="1.03" vaporized=""/>
    <tripinfo id="6" depart="86.00" departLane="1OW1_0" departPos="5.10" departSpeed="0.00" departDelay="0.00" arrival="162.00" arrivalLane="3NS2_0" arrivalPos="146.00" arrivalSpeed="14.23" duration="76.00" routeLength="493.86" waitingTime="14.00" waitingCount="1" stopTime="0.00" timeLoss="40.71" rerouteNo="1" devices="tripinfo_6" vType="Cartype" speedFactor="1.05" vaporized=""/>
    <tripinfo id="7" depart="89.00" departLane="1WO1_0" departPos="5.10" departSpeed="0.00" departDelay="0.00" arrival="205.00" arrivalLane="2NS2_0" arrivalPos="146.00" arrivalSpeed="12.08" duration="116.00" routeLength="836.92" waitingTime="26.00" waitingCount="1" stopTime="0.00" timeLoss="46.56" rerouteNo="2" devices="tripinfo_7" vType="Cartype" speedFactor="0.89" vaporized=""/>
    <tripinfo id="1" depart="13.00" departLane="1WO1_0" departPos="5.10" departSpeed="0.00" departDelay="0.00" arrival="213.00" arrivalLane="1WO4_0" arrivalPos="146.00" arrivalSpeed="13.03" duration="200.00" routeLength="1146.97" waitingTime="63.00" waitingCount="3" stopTime="0.00" timeLoss="111.21" rerouteNo="3" devices="tripinfo_1" vType="Cartype" speedFactor="0.94" vaporized=""/>
    <tripinfo id="5" depart="26.00" departLane="1WO1_0" departPos="5.10" departSpeed="0.00" departDelay="0.00" arrival="217.00" arrivalLane="1WO4_0" arrivalPos="146.00" arrivalSpeed="11.39" duration="191.00" routeLength="1146.97" waitingTime="45.00" waitingCount="3" stopTime="0.00" timeLoss="90.88" rerouteNo="3" devices="tripinfo_5" vType="Cartype" speedFactor="0.83" vaporized=""/>
    <tripinfo id="9" depart="188.00" departLane="1WO1_0" departPos="5.10" departSpeed="0.00" departDelay="0.00" arrival="247.00" arrivalLane="1SN2_0" arrivalPos="146.00" arrivalSpeed="11.68" duration="59.00" routeLength="543.86" waitingTime="0.00" waitingCount="0" stopTime="0.00" timeLoss="11.73" rerouteNo="1" devices="tripinfo_9" vType="Cartype" speedFactor="0.86" vaporized=""/>
    <tripinfo id="8" depart="150.00" departLane="1WO1_0" departPos="5.10" departSpeed="0.00" departDelay="0.00" arrival="254.00" arrivalLane="2SN2_0" arrivalPos="146.00" arrivalSpeed="12.64" duration="104.00" routeLength="844.55" waitingTime="16.00" waitingCount="1" stopTime="0.00" timeLoss="38.37" rerouteNo="2" devices="tripinfo_8" vType="Cartype" speedFactor="0.94" vaporized=""/>
    <tripinfo id="10" depart="215.00" departLane="1OW1_0" departPos="5.10" departSpeed="0.00" departDelay="0.00" arrival="302.00" arrivalLane="2SN2_0" arrivalPos="146.00" arrivalSpeed="14.88" duration="87.00" routeLength="786.92" waitingTime="6.00" waitingCount="1" stopTime="0.00" timeLoss="33.50" rerouteNo="2" devices="tripinfo_10" vType="Cartype" speedFactor="1.09" vaporized=""/>
    <tripinfo id="11" depart="279.00" departLane="1OW1_0" departPos="5.10" departSpeed="0.00" departDelay="0.00" arrival="327.00" arrivalLane="3NS2_0" arrivalPos="146.00" arrivalSpeed="14.22" duration="48.00" routeLength="493.86" waitingTime="0.00" waitingCount="0" stopTime="0.00" timeLoss="12.56" rerouteNo="1" devices="tripinfo_11" vType="Cartype" speedFactor="1.03" vaporized=""/>
    <tripinfo id="12" depart="332.00" departLane="1WO1_0" departPos="5.10" departSpeed="0.00" departDelay="0.00" arrival="394.00" arrivalLane="1SN2_0" arrivalPos="146.00" arrivalSpeed="14.50" duration="62.00" routeLength="543.86" waitingTime="0.00" waitingCount="0" stopTime="0.00" timeLoss="23.41" rerouteNo="1" devices="tripinfo_12" vType="Cartype" speedFactor="1.05" vaporized=""/>
    <tripinfo id="14" depart="353.00" departLane="1WO1_0" departPos="5.10" departSpeed="0.00" departDelay="0.00" arrival="407.00" arrivalLane="1NS2_0" arrivalPos="146.00" arrivalSpeed="13.64" duration="54.00" routeLength="536.23" waitingTime="0.00" waitingCount="0" stopTime="0.00" timeLoss="13.74" rerouteNo="1" devices="tripinfo_14" vType="Cartype" speedFactor="0.99" vaporized=""/>
    <tripinfo id="17" depart="403.00" departLane="1OW1_0" departPos="5.10" departSpeed="0.00" departDelay="0.00" arrival="498.00" arrivalLane="2SN2_0" arrivalPos="146.00" arrivalSpeed="13.01" duration="95.00" routeLength="786.92" waitingTime="12.00" waitingCount="1" stopTime="0.00" timeLoss="33.97" rerouteNo="2" devices="tripinfo_17" vType="Cartype" speedFactor="0.94" vaporized=""/>
    <tripinfo id="20" depart="444.00" departLane="1WO1_0" departPos="5.10" departSpeed="0.00" departDelay="0.00" arrival="498.00" arrivalLane="1NS2_0" arrivalPos="146.00" arrivalSpeed="14.00" duration="54.00" routeLength="536.23" waitingTime="0.00" waitingCount="0" stopTime="0.00" timeLoss="15.13" rerouteNo="1" devices="tripinfo_20" vType="Cartype" speedFactor="1.02" vaporized=""/>
    <tripinfo id="15" depart="359.00" departLane="1WO1_0" departPos="5.10" departSpeed="0.00" departDelay="0.00" arrival="499.00" arrivalLane="2NS2_0" arrivalPos="146.00" arrivalSpeed="12.53" duration="140.00" routeLength="836.92" waitingTime="39.00" waitingCount="2" stopTime="0.00" timeLoss="73.42" rerouteNo="2" devices="tripinfo_15" vType="Cartype" speedFactor="0.93" vaporized=""/>
    <tripinfo id="16" depart="364.00" departLane="1WO1_0" departPos="5.10" departSpeed="0.00" departDelay="4.00" arrival="502.00" arrivalLane="2SN2_0" arrivalPos="146.00" arrivalSpeed="12.14" duration="138.00" routeLength="844.55" waitingTime="31.00" waitingCount="2" stopTime="0.00" timeLoss="68.05" rerouteNo="2" devices="tripinfo_16" vType="Cartype" speedFactor="0.88" vaporized=""/>
    <tripinfo id="13" depart="342.00" departLane="1OW1_0" departPos="5.10" departSpeed="0.00" departDelay="0.00" arrival="508.00" arrivalLane="1NS2_0" arrivalPos="146.00" arrivalSpeed="15.24" duration="166.00" routeLength="1095.24" waitingTime="33.00" waitingCount="4" stopTime="0.00" timeLoss="94.48" rerouteNo="3" devices="tripinfo_13" vType="Cartype" speedFactor="1.12" vaporized=""/>
    <tripinfo id="19" depart="434.00" departLane="1OW1_0" departPos="5.10" departSpeed="0.00" departDelay="0.00" arrival="545.00" arrivalLane="2SN2_0" arrivalPos="146.00" arrivalSpeed="16.06" duration="111.00" routeLength="786.92" waitingTime="21.00" waitingCount="2" stopTime="0.00" timeLoss="61.34" rerouteNo="2" devices="tripinfo_19" vType="Cartype" speedFactor="1.16" vaporized=""/>
    <tripinfo id="22" depart="489.00" departLane="3NS1_0" departPos="5.10" departSpeed="0.00" departDelay="0.00" arrival="586.00" arrivalLane="3NS2_0" arrivalPos="146.00" arrivalSpeed="13.23" duration="97.00" routeLength="495.59" waitingTime="36.00" waitingCount="1" stopTime="0.00" timeLoss="59.44" rerouteNo="1" devices="tripinfo_22" vType="Cartype" speedFactor="0.98" vaporized=""/>
    <tripinfo id="18" depart="409.00" departLane="1WO1_0" departPos="5.10" departSpeed="0.00" departDelay="0.00" arrival="603.00" arrivalLane="1WO4_0" arrivalPos="146.00" arrivalSpeed="12.82" duration="194.00" routeLength="1146.97" waitingTime="57.00" waitingCount="3" stopTime="0.00" timeLoss="105.46" rerouteNo="3" devices="tripinfo_18" vType="Cartype" speedFactor="0.94" vaporized=""/>
    <tripinfo id="21" depart="457.00" departLane="1WO1_0" departPos="5.10" departSpeed="0.00" departDelay="0.00" arrival="653.00" arrivalLane="1WO4_0" arrivalPos="146.00" arrivalSpeed="13.71" duration="196.00" routeLength="1146.97" waitingTime="64.00" waitingCount="3" stopTime="0.00" timeLoss="113.79" rerouteNo="3" devices="tripinfo_21" vType="Cartype" speedFactor="1.01" vaporized=""/>
    <tripinfo id="24" depart="636.00" departLane="1WO1_0" departPos="5.10" departSpeed="0.00" departDelay="0.00" arrival="697.00" arrivalLane="1NS2_0" arrivalPos="146.00" arrivalSpeed="11.12" duration="61.00" routeLength="536.23" waitingTime="0.00" waitingCount="0" stopTime="0.00" timeLoss="13.10" rerouteNo="1" devices="tripinfo_24" vType="Cartype" speedFactor="0.83" vaporized=""/>
    <tripinfo id="25" depart="660.00" departLane="1OW1_0" departPos="5.10" departSpeed="0.00" departDelay="0.00" arrival="714.00" arrivalLane="3NS2_0" arrivalPos="146.00" arrivalSpeed="11.95" duration="54.00" routeLength="493.86" waitingTime="0.00" waitingCount="0" stopTime="0.00" timeLoss="12.11" rerouteNo="1" devices="tripinfo_25" vType="Cartype" speedFactor="0.87" vaporized=""/>
    <tripinfo id="23" depart="595.00" departLane="1WO1_0" departPos="5.10" departSpeed="0.00" departDelay="0.00" arrival="750.00" arrivalLane="3NS2_0" arrivalPos="146.00" arrivalSpeed="12.27" duration="155.00" routeLength="1137.61" waitingTime="29.00" waitingCount="2" stopTime="0.00" timeLoss="62.16" rerouteNo="3" devices="tripinfo_23" vType="Cartype" speedFactor="0.89" vaporized=""/>
    <tripinfo id="26" depart="668.00" departLane="1WO1_0" departPos="5.10" departSpeed="0.00" departDelay="0.00" arrival="793.00" arrivalLane="2NS2_0" arrivalPos="146.00" arrivalSpeed="12.63" duration="125.00" routeLength="836.92" waitingTime="25.00" waitingCount="2" stopTime="0.00" timeLoss="57.78" rerouteNo="2" devices="tripinfo_26" vType="Cartype" speedFactor="0.92" vaporized=""/>
    <tripinfo id="28" depart="770.00" departLane="1WO1_0" departPos="5.10" departSpeed="0.00" departDelay="0.00" arrival="857.00" arrivalLane="2SN2_0" arrivalPos="146.00" arrivalSpeed="15.55" duration="87.00" routeLength="844.55" waitingTime="2.00" waitingCount="1" stopTime="0.00" timeLoss="32.06" rerouteNo="2" devices="tripinfo_28" vType="Cartype" speedFactor="1.13" vaporized=""/>
    <tripinfo id="27" depart="742.00" departLane="1OW1_0" departPos="5.10" departSpeed="0.00" departDelay="0.00" arrival="894.00" arrivalLane="1NS2_0" arrivalPos="146.00" arrivalSpeed="12.94" duration="152.00" routeLength="1095.24" waitingTime="26.00" waitingCount="3" stopTime="0.00" timeLoss="68.09" rerouteNo="3" devices="tripinfo_27" vType="Cartype" speedFactor="0.95" vaporized=""/>
    <tripinfo id="30" depart="820.00" departLane="1WO1_0" departPos="5.10" departSpeed="0.00" departDelay="0.00" arrival="939.00" arrivalLane="2SN2_0" arrivalPos="146.00" arrivalSpeed="16.19" duration="119.00" routeLength="844.55" waitingTime="24.00" waitingCount="2" stopTime="0.00" timeLoss="66.27" rerouteNo="2" devices="tripinfo_30" vType="Cartype" speedFactor="1.18" vaporized=""/>
    <tripinfo id="31" depart="882.00" departLane="1OW1_0" departPos="5.10" departSpeed="0.00" departDelay="0.00" arrival="946.00" arrivalLane="3SN2_0" arrivalPos="146.00" arrivalSpeed="15.73" duration="64.00" routeLength="486.23" waitingTime="5.00" waitingCount="1" stopTime="0.00" timeLoss="32.71" rerouteNo="1" devices="tripinfo_31" vType="Cartype" speedFactor="1.15" vaporized=""/>
    <tripinfo id="29" depart="813.00" departLane="1WO1_0" departPos="5.10" departSpeed="0.00" departDelay="0.00" arrival="966.00" arrivalLane="3SN2_0" arrivalPos="146.00" arrivalSpeed="12.74" duration="153.00" routeLength="1145.24" waitingTime="27.00" waitingCount="2" stopTime="0.00" timeLoss="63.32" rerouteNo="3" devices="tripinfo_29" vType="Cartype" speedFactor="0.93" vaporized=""/>
    <tripinfo id="33" depart="928.00" departLane="1WO1_0" departPos="5.10" departSpeed="0.00" departDelay="0.00" arrival="983.00" arrivalLane="1SN2_0" arrivalPos="146.00" arrivalSpeed="16.08" duration="55.00" routeLength="543.86" waitingTime="0.00" waitingCount="0" stopTime="0.00" timeLoss="20.27" rerouteNo="1" devices="tripinfo_33" vType="Cartype" speedFactor="1.17" vaporized=""/>
    <tripinfo id="34" depart="965.00" departLane="1WO1_0" departPos="5.10" departSpeed="0.00" departDelay="0.00" arrival="1032.00" arrivalLane="1NS2_0" arrivalPos="146.00" arrivalSpeed="13.77" duration="67.00" routeLength="536.23" waitingTime="5.00" waitingCount="1" stopTime="0.00" timeLoss="26.92" rerouteNo="1" devices="tripinfo_34" vType="Cartype" speedFactor="0.99" vaporized=""/>
    <tripinfo id="35" depart="971.00" departLane="1WO1_0" departPos="5.10" departSpeed="0.00" departDelay="0.00" arrival="1033.00" arrivalLane="1NS2_0" arrivalPos="146.00" arrivalSpeed="13.82" duration="62.00" routeLength="536.23" waitingTime="0.00" waitingCount="0" stopTime="0.00" timeLoss="23.36" rerouteNo="1" devices="tripinfo_35" vType="Cartype" speedFactor="1.02" vaporized=""/>
    <tripinfo id="32" depart="917.00" departLane="1OW1_0" departPos="5.10" departSpeed="0.00" departDelay="0.00" arrival="1085.00" arrivalLane="1OW4_0" arrivalPos="196.00" arrivalSpeed="13.94" duration="168.00" routeLength="1146.97" waitingTime="32.00" waitingCount="3" stopTime="0.00" timeLoss="85.31" rerouteNo="3" devices="tripinfo_32" vType="Cartype" speedFactor="1.01" vaporized=""/>
    <tripinfo id="39" depart="1042.00" departLane="1OW1_0" departPos="5.10" departSpeed="0.00" departDelay="0.00" arrival="1096.00" arrivalLane="3NS2_0" arrivalPos="146.00" arrivalSpeed="12.45" duration="54.00" routeLength="493.86" waitingTime="0.00" waitingCount="0" stopTime="0.00" timeLoss="13.28" rerouteNo="1" devices="tripinfo_39" vType="Cartype" speedFactor="0.90" vaporized=""/>
    <tripinfo id="40" depart="1044.00" departLane="3NS1_0" departPos="5.10" departSpeed="0.00" departDelay="0.00" arrival="1125.00" arrivalLane="3NS2_0" arrivalPos="146.00" arrivalSpeed="13.95" duration="81.00" routeLength="495.59" waitingTime="21.00" waitingCount="1" stopTime="0.00" timeLoss="46.33" rerouteNo="1" devices="tripinfo_40" vType="Cartype" speedFactor="1.03" vaporized=""/>
    <tripinfo id="37" depart="995.00" departLane="1WO1_0" departPos="5.10" departSpeed="0.00" departDelay="0.00" arrival="1135.00" arrivalLane="2NS2_0" arrivalPos="146.00" arrivalSpeed="16.02" duration="140.00" routeLength="836.92" waitingTime="43.00" waitingCount="2" stopTime="0.00" timeLoss="87.37" rerouteNo="2" devices="tripinfo_37" vType="Cartype" speedFactor="1.18" vaporized=""/>
    <tripinfo id="36" depart="979.00" departLane="1WO1_0" departPos="5.10" departSpeed="0.00" departDelay="0.00" arrival="1142.00" arrivalLane="1WO4_0" arrivalPos="146.00" arrivalSpeed="13.30" duration="163.00" routeLength="1146.97" waitingTime="40.00" waitingCount="2" stopTime="0.00" timeLoss="77.18" rerouteNo="3" devices="tripinfo_36" vType="Cartype" speedFactor="0.97" vaporized=""/>
    <tripinfo id="38" depart="1035.00" departLane="1OW1_0" departPos="5.10" departSpeed="0.00" departDelay="0.00" arrival="1178.00" arrivalLane="1SN2_0" arrivalPos="146.00" arrivalSpeed="15.13" duration="143.00" routeLength="1087.61" waitingTime="28.00" waitingCount="2" stopTime="0.00" timeLoss="71.08" rerouteNo="3" devices="tripinfo_38" vType="Cartype" speedFactor="1.10" vaporized=""/>
    <tripinfo id="42" depart="1106.00" departLane="1OW1_0" departPos="5.10" departSpeed="0.00" departDelay="0.00" arrival="1191.00" arrivalLane="3SN2_0" arrivalPos="146.00" arrivalSpeed="14.85" duration="85.00" routeLength="486.23" waitingTime="25.00" waitingCount="1" stopTime="0.00" timeLoss="51.32" rerouteNo="1" devices="tripinfo_42" vType="Cartype" speedFactor="1.09" vaporized=""/>
    <tripinfo id="41" depart="1105.00" departLane="1WO1_0" departPos="5.10" departSpeed="0.00" departDelay="0.00" arrival="1233.00" arrivalLane="2NS2_0" arrivalPos="146.00" arrivalSpeed="13.04" duration="128.00" routeLength="836.92" waitingTime="28.00" waitingCount="2" stopTime="0.00" timeLoss="63.94" rerouteNo="2" devices="tripinfo_41" vType="Cartype" speedFactor="0.96" vaporized=""/>
    <tripinfo id="43" depart="1134.00" departLane="1OW1_0" departPos="5.10" departSpeed="0.00" departDelay="0.00" arrival="1236.00" arrivalLane="2NS2_0" arrivalPos="146.00" arrivalSpeed="14.21" duration="102.00" routeLength="794.55" waitingTime="6.00" waitingCount="1" stopTime="0.00" timeLoss="45.74" rerouteNo="2" devices="tripinfo_43" vType="Cartype" speedFactor="1.04" vaporized=""/>
    <tripinfo id="44" depart="1146.00" departLane="1WO1_0" departPos="5.10" departSpeed="0.00" departDelay="0.00" arrival="1281.00" arrivalLane="2NS2_0" arrivalPos="146.00" arrivalSpeed="14.16" duration="135.00" routeLength="836.92" waitingTime="36.00" waitingCount="2" stopTime="0.00" timeLoss="75.72" rerouteNo="2" devices="tripinfo_44" vType="Cartype" speedFactor="1.04" vaporized=""/>
    <tripinfo id="46" depart="1213.00" departLane="1OW1_0" departPos="5.10" departSpeed="0.00" departDelay="0.00" arrival="1289.00" arrivalLane="3NS2_0" arrivalPos="146.00" arrivalSpeed="13.67" duration="76.00" routeLength="493.86" waitingTime="16.00" waitingCount="1" stopTime="0.00" timeLoss="39.57" rerouteNo="1" devices="tripinfo_46" vType="Cartype" speedFactor="1.00" vaporized=""/>
    <tripinfo id="47" depart="1218.00" departLane="1OW1_0" departPos="5.10" departSpeed="0.00" departDelay="3.00" arrival="1290.00" arrivalLane="3SN2_0" arrivalPos="146.00" arrivalSpeed="12.37" duration="72.00" routeLength="486.23" waitingTime="10.00" waitingCount="1" stopTime="0.00" timeLoss="32.17" rerouteNo="1" devices="tripinfo_47" vType="Cartype" speedFactor="0.90" vaporized=""/>
    <tripinfo id="50" depart="1236.00" departLane="1WO1_0" departPos="5.10" departSpeed="0.00" departDelay="0.00" arrival="1295.00" arrivalLane="1SN2_0" arrivalPos="146.00" arrivalSpeed="11.66" duration="59.00" routeLength="543.86" waitingTime="0.00" waitingCount="0" stopTime="0.00" timeLoss="11.98" rerouteNo="1" devices="tripinfo_50" vType="Cartype" speedFactor="0.85" vaporized=""/>
    <tripinfo id="51" depart="1247.00" departLane="1OW1_0" departPos="5.10" departSpeed="0.00" departDelay="0.00" arrival="1295.00" arrivalLane="3SN2_0" arrivalPos="146.00" arrivalSpeed="15.93" duration="48.00" routeLength="486.23" waitingTime="0.00" waitingCount="0" stopTime="0.00" timeLoss="17.15" rerouteNo="1" devices="tripinfo_51" vType="Cartype" speedFactor="1.17" vaporized=""/>
    <tripinfo id="48" depart="1223.00" departLane="2SN1_0" departPos="5.10" departSpeed="0.00" departDelay="0.00" arrival="1314.00" arrivalLane="2SN2_0" arrivalPos="146.00" arrivalSpeed="11.93" duration="91.00" routeLength="495.59" waitingTime="28.00" waitingCount="1" stopTime="0.00" timeLoss="49.85" rerouteNo="1" devices="tripinfo_48" vType="Cartype" speedFactor="0.88" vaporized=""/>
    <tripinfo id="49" depart="1224.00" departLane="3SN1_0" departPos="5.10" departSpeed="0.00" departDelay="0.00" arrival="1322.00" arrivalLane="3SN2_0" arrivalPos="146.00" arrivalSpeed="11.44" duration="98.00" routeLength="495.59" waitingTime="36.00" waitingCount="1" stopTime="0.00" timeLoss="55.82" rerouteNo="1" devices="tripinfo_49" vType="Cartype" speedFactor="0.85" vaporized=""/>
    <tripinfo id="53" depart="1275.00" departLane="1WO1_0" departPos="5.10" departSpeed="0.00" departDelay="0.00" arrival="1330.00" arrivalLane="1SN2_0" arrivalPos="146.00" arrivalSpeed="14.92" duration="55.00" routeLength="543.86" waitingTime="0.00" waitingCount="0" stopTime="0.00" timeLoss="17.72" rerouteNo="1" devices="tripinfo_53" vType="Cartype" speedFactor="1.10" vaporized=""/>
    <tripinfo id="45" depart="1182.00" departLane="1WO1_0" departPos="5.10" departSpeed="0.00" departDelay="0.00" arrival="1338.00" arrivalLane="1WO4_0" arrivalPos="146.00" arrivalSpeed="14.88" duration="156.00" routeLength="1146.97" waitingTime="36.00" waitingCount="2" stopTime="0.00" timeLoss="79.96" rerouteNo="3" devices="tripinfo_45" vType="Cartype" speedFactor="1.09" vaporized=""/>
    <tripinfo id="52" depart="1269.00" departLane="1OW1_0" departPos="5.10" departSpeed="0.00" departDelay="0.00" arrival="1338.00" arrivalLane="3SN2_0" arrivalPos="146.00" arrivalSpeed="13.91" duration="69.00" routeLength="486.23" waitingTime="9.00" waitingCount="1" stopTime="0.00" timeLoss="33.58" rerouteNo="1" devices="tripinfo_52" vType="Cartype" speedFactor="1.02" vaporized=""/>
    <tripinfo id="55" depart="1304.00" departLane="1OW1_0" departPos="5.10" departSpeed="0.00" departDelay="0.00" arrival="1354.00" arrivalLane="3NS2_0" arrivalPos="146.00" arrivalSpeed="13.76" duration="50.00" routeLength="493.86" waitingTime="0.00" waitingCount="0" stopTime="0.00" timeLoss="12.98" rerouteNo="1" devices="tripinfo_55" vType="Cartype" speedFactor="1.00" vaporized=""/>
    <tripinfo id="56" depart="1327.00" departLane="1WO1_0" departPos="5.10" departSpeed="0.00" departDelay="0.00" arrival="1386.00" arrivalLane="1SN2_0" arrivalPos="146.00" arrivalSpeed="12.42" duration="59.00" routeLength="543.86" waitingTime="0.00" waitingCount="0" stopTime="0.00" timeLoss="14.71" rerouteNo="1" devices="tripinfo_56" vType="Cartype" speedFactor="0.90" vaporized=""/>
    <tripinfo id="57" depart="1350.00" departLane="1WO1_0" departPos="5.10" departSpeed="0.00" departDelay="0.00" arrival="1423.00" arrivalLane="1NS2_0" arrivalPos="146.00" arrivalSpeed="15.50" duration="73.00" routeLength="536.23" waitingTime="11.00" waitingCount="1" stopTime="0.00" timeLoss="38.52" rerouteNo="1" devices="tripinfo_57" vType="Cartype" speedFactor="1.14" vaporized=""/>
    <tripinfo id="54" depart="1293.00" departLane="1WO1_0" departPos="5.10" departSpeed="0.00" departDelay="0.00" arrival="1429.00" arrivalLane="2NS2_0" arrivalPos="146.00" arrivalSpeed="13.74" duration="136.00" routeLength="836.92" waitingTime="39.00" waitingCount="2" stopTime="0.00" timeLoss="75.36" rerouteNo="2" devices="tripinfo_54" vType="Cartype" speedFactor="1.00" vaporized=""/>
    <tripinfo id="58" depart="1376.00" departLane="1WO1_0" departPos="5.10" departSpeed="0.00" departDelay="0.00" arrival="1430.00" arrivalLane="1NS2_0" arrivalPos="146.00" arrivalSpeed="14.09" duration="54.00" routeLength="536.23" waitingTime="0.00" waitingCount="0" stopTime="0.00" timeLoss="14.98" rerouteNo="1" devices="tripinfo_58" vType="Cartype" speedFactor="1.02" vaporized=""/>
    <tripinfo id="60" depart="1429.00" departLane="1WO1_0" departPos="5.10" departSpeed="0.00" departDelay="0.00" arrival="1484.00" arrivalLane="1SN2_0" arrivalPos="146.00" arrivalSpeed="14.91" duration="55.00" routeLength="543.86" waitingTime="0.00" waitingCount="0" stopTime="0.00" timeLoss="17.60" rerouteNo="1" devices="tripinfo_60" vType="Cartype" speedFactor="1.08" vaporized=""/>
    <tripinfo id="59" depart="1419.00" departLane="1OW1_0" departPos="5.10" departSpeed="0.00" departDelay="0.00" arrival="1485.00" arrivalLane="3SN2_0" arrivalPos="146.00" arrivalSpeed="13.41" duration="66.00" routeLength="486.23" waitingTime="5.00" waitingCount="1" stopTime="0.00" timeLoss="28.87" rerouteNo="1" devices="tripinfo_59" vType="Cartype" speedFactor="0.97" vaporized=""/>
    <tripinfo id="62" depart="1439.00" departLane="1WO1_0" departPos="5.10" departSpeed="0.00" departDelay="0.00" arrival="1493.00" arrivalLane="1SN2_0" arrivalPos="146.00" arrivalSpeed="14.01" duration="54.00" routeLength="543.86" waitingTime="0.00" waitingCount="0" stopTime="0.00" timeLoss="14.00" rerouteNo="1" devices="tripinfo_62" vType="Cartype" speedFactor="1.02" vaporized=""/>
    <tripinfo id="63" depart="1443.00" departLane="3SN1_0" departPos="5.10" departSpeed="0.00" departDelay="0.00" arrival="1517.00" arrivalLane="3SN2_0" arrivalPos="146.00" arrivalSpeed="13.58" duration="74.00" routeLength="495.59" waitingTime="13.00" waitingCount="1" stopTime="0.00" timeLoss="37.37" rerouteNo="1" devices="tripinfo_63" vType="Cartype" speedFactor="0.99" vaporized=""/>
    <tripinfo id="61" depart="1429.00" departLane="1OW1_0" departPos="5.10" departSpeed="0.00" departDelay="0.00" arrival="1527.00" arrivalLane="2SN2_0" arrivalPos="146.00" arrivalSpeed="15.55" duration="98.00" routeLength="786.92" waitingTime="6.00" waitingCount="1" stopTime="0.00" timeLoss="45.89" rerouteNo="2" devices="tripinfo_61" vType="Cartype" speedFactor="1.12" vaporized=""/>
    <tripinfo id="64" depart="1502.00" departLane="1WO1_0" departPos="5.10" departSpeed="0.00" departDelay="0.00" arrival="1572.00" arrivalLane="1NS2_0" arrivalPos="146.00" arrivalSpeed="12.94" duration="70.00" routeLength="536.23" waitingTime="3.00" waitingCount="1" stopTime="0.00" timeLoss="27.12" rerouteNo="1" devices="tripinfo_64" vType="Cartype" speedFactor="0.94" vaporized=""/>
    <tripinfo id="66" depart="1538.00" departLane="1WO1_0" departPos="5.10" departSpeed="0.00" departDelay="0.00" arrival="1621.00" arrivalLane="1NS2_0" arrivalPos="146.00" arrivalSpeed="12.21" duration="83.00" routeLength="536.23" waitingTime="17.00" waitingCount="1" stopTime="0.00" timeLoss="38.95" rerouteNo="1" devices="tripinfo_66" vType="Cartype" speedFactor="0.91" vaporized=""/>
    <tripinfo id="65" depart="1527.00" departLane="1OW1_0" departPos="5.10" departSpeed="0.00" departDelay="0.00" arrival="1626.00" arrivalLane="2SN2_0" arrivalPos="146.00" arrivalSpeed="11.95" duration="99.00" routeLength="786.92" waitingTime="12.00" waitingCount="1" stopTime="0.00" timeLoss="33.52" rerouteNo="2" devices="tripinfo_65" vType="Cartype" speedFactor="0.88" vaporized=""/>
    <tripinfo id="67" depart="1552.00" departLane="1OW1_0" departPos="5.10" departSpeed="0.00" departDelay="0.00" arrival="1633.00" arrivalLane="3SN2_0" arrivalPos="146.00" arrivalSpeed="12.36" duration="81.00" routeLength="486.23" waitingTime="20.00" waitingCount="1" stopTime="0.00" timeLoss="41.78" rerouteNo="1" devices="tripinfo_67" vType="Cartype" speedFactor="0.91" vaporized=""/>
    <tripinfo id="70" depart="1607.00" departLane="1WO1_0" departPos="5.10" departSpeed="0.00" departDelay="0.00" arrival="1664.00" arrivalLane="1SN2_0" arrivalPos="146.00" arrivalSpeed="14.14" duration="57.00" routeLength="543.86" waitingTime="0.00" waitingCount="0" stopTime="0.00" timeLoss="17.82" rerouteNo="1" devices="tripinfo_70" vType="Cartype" speedFactor="1.02" vaporized=""/>
    <tripinfo id="74" depart="1626.00" departLane="1OW1_0" departPos="5.10" departSpeed="0.00" departDelay="0.00" arrival="1677.00" arrivalLane="3NS2_0" arrivalPos="146.00" arrivalSpeed="12.87" duration="51.00" routeLength="493.86" waitingTime="0.00" waitingCount="0" stopTime="0.00" timeLoss="12.47" rerouteNo="1" devices="tripinfo_74" vType="Cartype" speedFactor="0.96" vaporized=""/>
    <tripinfo id="68" depart="1575.00" departLane="2NS1_0" departPos="5.10" departSpeed="0.00" departDelay="0.00" arrival="1680.00" arrivalLane="1OW4_0" arrivalPos="196.00" arrivalSpeed="14.28" duration="105.00" routeLength="836.92" waitingTime="21.00" waitingCount="1" stopTime="0.00" timeLoss="45.43" rerouteNo="2" devices="tripinfo_68" vType="Cartype" speedFactor="1.04" vaporized=""/>
    <tripinfo id="71" depart="1616.00" departLane="1OW1_0" departPos="5.10" departSpeed="0.00" departDelay="0.00" arrival="1680.00" arrivalLane="3SN2_0" arrivalPos="146.00" arrivalSpeed="13.39" duration="64.00" routeLength="486.23" waitingTime="5.00" waitingCount="1" stopTime="0.00" timeLoss="27.22" rerouteNo="1" devices="tripinfo_71" vType="Cartype" speedFactor="0.97" vaporized=""/>
    <tripinfo id="69" depart="1583.00" departLane="3NS1_0" departPos="5.10" departSpeed="0.00" departDelay="0.00" arrival="1723.00" arrivalLane="2SN2_0" arrivalPos="146.00" arrivalSpeed="14.14" duration="140.00" routeLength="777.56" waitingTime="48.00" waitingCount="2" stopTime="0.00" timeLoss="82.96" rerouteNo="2" devices="tripinfo_69" vType="Cartype" speedFactor="1.02" vaporized=""/>
    <tripinfo id="72" depart="1617.00" departLane="1WO1_0" departPos="5.10" departSpeed="0.00" departDelay="0.00" arrival="1727.00" arrivalLane="2SN2_0" arrivalPos="146.00" arrivalSpeed="12.71" duration="110.00" routeLength="844.55" waitingTime="19.00" waitingCount="1" stopTime="0.00" timeLoss="43.87" rerouteNo="2" devices="tripinfo_72" vType="Cartype" speedFactor="0.94" vaporized=""/>
    <tripinfo id="76" depart="1647.00" departLane="1OW1_0" departPos="5.10" departSpeed="0.00" departDelay="0.00" arrival="1729.00" arrivalLane="3SN2_0" arrivalPos="146.00" arrivalSpeed="14.25" duration="82.00" routeLength="486.23" waitingTime="23.00" waitingCount="1" stopTime="0.00" timeLoss="47.02" rerouteNo="1" devices="tripinfo_76" vType="Cartype" speedFactor="1.03" vaporized=""/>