<?xml version="1.0" encoding="UTF-8"?>

<!-- generated on 11/24/19 19:58:45 by Eclipse SUMO Version 1.3.1
<configuration xmlns:xsi="http://www.w3.org/2001/XMLSchema-instance" xsi:noNamespaceSchemaLocation="http://sumo.dlr.de/xsd/sumoConfiguration.xsd">

    <input>
        <net-file value="Data/Cross_1_3.net.xml"/>
        <route-files value="Data/Cross12.rou.xml"/>
        <additional-files value="Data/rerouter.xml,Data/trafficLight.add.xml"/>
    </input>

    <output>
        <tripinfo-output value="tripinfo.xml"/>
    </output>

    <report>
        <log value="logfile.txt"/>
    </report>

    <traci_server>
        <remote-port value="62868"/>
    </traci_server>

</configuration>
-->

<tripinfos xmlns:xsi="http://www.w3.org/2001/XMLSchema-instance" xsi:noNamespaceSchemaLocation="http://sumo.dlr.de/xsd/tripinfo_file.xsd">
    <tripinfo id="1" depart="2.00" departLane="2NS1_0" departPos="7.10" departSpeed="0.00" departDelay="0.00" arrival="68.00" arrivalLane="2NS2_0" arrivalPos="146.00" arrivalSpeed="12.97" duration="66.00" routeLength="493.59" waitingTime="6.00" waitingCount="1" stopTime="0.00" timeLoss="27.44" rerouteNo="1" devices="tripinfo_1" vType="typeNS" speedFactor="0.94" vaporized=""/>
    <tripinfo id="7" depart="15.00" departLane="2NS1_0" departPos="7.10" departSpeed="0.00" departDelay="0.00" arrival="70.00" arrivalLane="2NS2_0" arrivalPos="146.00" arrivalSpeed="11.94" duration="55.00" routeLength="493.59" waitingTime="0.00" waitingCount="0" stopTime="0.00" timeLoss="14.69" rerouteNo="1" devices="tripinfo_7" vType="typeNS" speedFactor="0.89" vaporized=""/>
    <tripinfo id="8" depart="20.00" departLane="2NS1_0" departPos="7.10" departSpeed="0.00" departDelay="4.00" arrival="72.00" arrivalLane="2NS2_0" arrivalPos="146.00" arrivalSpeed="12.78" duration="52.00" routeLength="493.59" waitingTime="0.00" waitingCount="0" stopTime="0.00" timeLoss="13.71" rerouteNo="1" devices="tripinfo_8" vType="typeNS" speedFactor="0.94" vaporized=""/>
    <tripinfo id="13" depart="27.00" departLane="3SN1_0" departPos="7.10" departSpeed="0.00" departDelay="0.00" arrival="72.00" arrivalLane="3SN2_0" arrivalPos="146.00" arrivalSpeed="15.45" duration="45.00" routeLength="493.59" waitingTime="0.00" waitingCount="0" stopTime="0.00" timeLoss="12.79" rerouteNo="1" devices="tripinfo_13" vType="typeNS" speedFactor="1.12" vaporized=""/>
    <tripinfo id="2" depart="3.00" departLane="3NS1_0" departPos="7.10" departSpeed="0.00" departDelay="0.00" arrival="74.00" arrivalLane="3NS2_0" arrivalPos="146.00" arrivalSpeed="13.86" duration="71.00" routeLength="493.59" waitingTime="11.00" waitingCount="1" stopTime="0.00" timeLoss="35.65" rerouteNo="1" devices="tripinfo_2" vType="typeNS" speedFactor="1.01" vaporized=""/>
    <tripinfo id="14" depart="30.00" departLane="1SN1_0" departPos="5.10" departSpeed="0.00" departDelay="2.00" arrival="78.00" arrivalLane="1SN2_0" arrivalPos="146.00" arrivalSpeed="13.55" duration="48.00" routeLength="495.59" waitingTime="0.00" waitingCount="0" stopTime="0.00" timeLoss="11.98" rerouteNo="1" devices="tripinfo_14" vType="typeWE" speedFactor="0.99" vaporized=""/>
    <tripinfo id="15" depart="29.00" departLane="1NS1_0" departPos="5.10" departSpeed="0.00" departDelay="0.00" arrival="79.00" arrivalLane="1NS2_0" arrivalPos="146.00" arrivalSpeed="12.80" duration="50.00" routeLength="495.59" waitingTime="0.00" waitingCount="0" stopTime="0.00" timeLoss="10.89" rerouteNo="1" devices="tripinfo_15" vType="typeWE" speedFactor="0.93" vaporized=""/>
    <tripinfo id="18" depart="34.00" departLane="1NS1_0" departPos="5.10" departSpeed="0.00" departDelay="2.00" arrival="83.00" arrivalLane="1NS2_0" arrivalPos="146.00" arrivalSpeed="12.70" duration="49.00" routeLength="495.59" waitingTime="0.00" waitingCount="0" stopTime="0.00" timeLoss="10.18" rerouteNo="1" devices="tripinfo_18" vType="typeWE" speedFactor="0.94" vaporized=""/>
    <tripinfo id="28" depart="45.00" departLane="3NS1_0" departPos="7.10" departSpeed="0.00" departDelay="0.00" arrival="91.00" arrivalLane="1WO4_0" arrivalPos="146.00" arrivalSpeed="15.58" duration="46.00" routeLength="491.86" waitingTime="0.00" waitingCount="0" stopTime="0.00" timeLoss="13.53" rerouteNo="1" devices="tripinfo_28" vType="typeNS" speedFactor="1.13" vaporized=""/>
    <tripinfo id="9" depart="19.00" departLane="1SN1_0" departPos="5.10" departSpeed="0.00" departDelay="0.00" arrival="99.00" arrivalLane="1OW4_0" arrivalPos="196.00" arrivalSpeed="11.51" duration="80.00" routeLength="543.86" waitingTime="7.00" waitingCount="2" stopTime="0.00" timeLoss="32.76" rerouteNo="1" devices="tripinfo_9" vType="typeWE" speedFactor="0.86" vaporized=""/>
    <tripinfo id="12" depart="25.00" departLane="1SN1_0" departPos="5.10" departSpeed="0.00" departDelay="0.00" arrival="100.00" arrivalLane="1OW4_0" arrivalPos="196.00" arrivalSpeed="12.24" duration="75.00" routeLength="543.86" waitingTime="5.00" waitingCount="1" stopTime="0.00" timeLoss="36.80" rerouteNo="1" devices="tripinfo_12" vType="typeWE" speedFactor="1.05" vaporized=""/>
    <tripinfo id="21" depart="37.00" departLane="1SN1_0" departPos="5.10" departSpeed="0.00" departDelay="0.00" arrival="102.00" arrivalLane="1OW4_0" arrivalPos="196.00" arrivalSpeed="13.22" duration="65.00" routeLength="543.86" waitingTime="1.00" waitingCount="1" stopTime="0.00" timeLoss="25.14" rerouteNo="1" devices="tripinfo_21" vType="typeWE" speedFactor="1.01" vaporized=""/>
    <tripinfo id="0" depart="0.00" departLane="3SN1_0" departPos="7.10" departSpeed="0.00" departDelay="0.00" arrival="103.00" arrivalLane="2NS2_0" arrivalPos="146.00" arrivalSpeed="14.38" duration="103.00" routeLength="790.82" waitingTime="16.00" waitingCount="2" stopTime="0.00" timeLoss="47.99" rerouteNo="2" devices="tripinfo_0" vType="typeNS" speedFactor="1.06" vaporized=""/>
    <tripinfo id="3" depart="5.00" departLane="2SN1_0" departPos="7.10" departSpeed="0.00" departDelay="0.00" arrival="105.00" arrivalLane="1WO4_0" arrivalPos="146.00" arrivalSpeed="14.87" duration="100.00" routeLength="784.92" waitingTime="7.00" waitingCount="2" stopTime="0.00" timeLoss="47.05" rerouteNo="2" devices="tripinfo_3" vType="typeNS" speedFactor="1.08" vaporized=""/>
    <tripinfo id="22" depart="37.00" departLane="1OW1_0" departPos="7.10" departSpeed="0.00" departDelay="0.00" arrival="108.00" arrivalLane="3SN2_0" arrivalPos="146.00" arrivalSpeed="13.42" duration="71.00" routeLength="484.23" waitingTime="10.00" waitingCount="1" stopTime="0.00" timeLoss="33.90" rerouteNo="1" devices="tripinfo_22" vType="typeNS" speedFactor="0.98" vaporized=""/>
    <tripinfo id="26" depart="44.00" departLane="1WO1_0" departPos="7.10" departSpeed="0.00" departDelay="0.00" arrival="110.00" arrivalLane="1NS2_0" arrivalPos="146.00" arrivalSpeed="12.37" duration="66.00" routeLength="534.23" waitingTime="0.00" waitingCount="0" stopTime="0.00" timeLoss="23.06" rerouteNo="1" devices="tripinfo_26" vType="typeNS" speedFactor="0.92" vaporized=""/>
    <tripinfo id="34" depart="52.00" departLane="1WO1_0" departPos="7.10" departSpeed="0.00" departDelay="0.00" arrival="112.00" arrivalLane="1NS2_0" arrivalPos="146.00" arrivalSpeed="13.45" duration="60.00" routeLength="534.23" waitingTime="0.00" waitingCount="0" stopTime="0.00" timeLoss="19.95" rerouteNo="1" devices="tripinfo_34" vType="typeNS" speedFactor="0.99" vaporized=""/>
    <tripinfo id="10" depart="25.00" departLane="2NS1_0" departPos="7.10" departSpeed="0.00" departDelay="6.00" arrival="115.00" arrivalLane="2NS2_0" arrivalPos="146.00" arrivalSpeed="14.96" duration="90.00" routeLength="493.59" waitingTime="31.00" waitingCount="1" stopTime="0.00" timeLoss="56.45" rerouteNo="1" devices="tripinfo_10" vType="typeNS" speedFactor="1.09" vaporized=""/>
    <tripinfo id="23" depart="38.00" departLane="2SN1_0" departPos="7.10" departSpeed="0.00" departDelay="1.00" arrival="118.00" arrivalLane="2SN2_0" arrivalPos="146.00" arrivalSpeed="12.09" duration="80.00" routeLength="493.59" waitingTime="18.00" waitingCount="1" stopTime="0.00" timeLoss="40.00" rerouteNo="1" devices="tripinfo_23" vType="typeNS" speedFactor="0.89" vaporized=""/>
    <tripinfo id="30" depart="46.00" departLane="2SN1_0" departPos="7.10" departSpeed="0.00" departDelay="0.00" arrival="120.00" arrivalLane="2SN2_0" arrivalPos="146.00" arrivalSpeed="13.45" duration="74.00" routeLength="493.59" waitingTime="14.00" waitingCount="1" stopTime="0.00" timeLoss="43.62" rerouteNo="1" devices="tripinfo_30" vType="typeNS" speedFactor="1.18" vaporized=""/>
    <tripinfo id="36" depart="52.00" departLane="3NS1_0" departPos="7.10" departSpeed="0.00" departDelay="0.00" arrival="123.00" arrivalLane="1WO4_0" arrivalPos="146.00" arrivalSpeed="13.14" duration="71.00" routeLength="491.86" waitingTime="11.00" waitingCount="1" stopTime="0.00" timeLoss="33.34" rerouteNo="1" devices="tripinfo_36" vType="typeNS" speedFactor="0.97" vaporized=""/>
    <tripinfo id="39" depart="58.00" departLane="3NS1_0" departPos="7.10" departSpeed="0.00" departDelay="1.00" arrival="126.00" arrivalLane="3NS2_0" arrivalPos="146.00" arrivalSpeed="12.21" duration="68.00" routeLength="493.59" waitingTime="5.00" waitingCount="1" stopTime="0.00" timeLoss="27.83" rerouteNo="1" devices="tripinfo_39" vType="typeNS" speedFactor="0.90" vaporized=""/>
    <tripinfo id="6" depart="13.00" departLane="1OW1_0" departPos="7.10" departSpeed="0.00" departDelay="0.00" arrival="129.00" arrivalLane="2SN2_0" arrivalPos="146.00" arrivalSpeed="14.24" duration="116.00" routeLength="784.92" waitingTime="33.00" waitingCount="1" stopTime="0.00" timeLoss="60.97" rerouteNo="2" devices="tripinfo_6" vType="typeNS" speedFactor="1.05" vaporized=""/>
    <tripinfo id="33" depart="52.00" departLane="1SN1_0" departPos="5.10" departSpeed="0.00" departDelay="0.00" arrival="130.00" arrivalLane="1SN2_0" arrivalPos="146.00" arrivalSpeed="16.25" duration="78.00" routeLength="495.59" waitingTime="17.00" waitingCount="1" stopTime="0.00" timeLoss="47.26" rerouteNo="1" devices="tripinfo_33" vType="typeWE" speedFactor="1.17" vaporized=""/>
    <tripinfo id="42" depart="63.00" departLane="1NS1_0" departPos="5.10" departSpeed="0.00" departDelay="0.00" arrival="132.00" arrivalLane="1OW4_0" arrivalPos="196.00" arrivalSpeed="14.78" duration="69.00" routeLength="536.23" waitingTime="6.00" waitingCount="1" stopTime="0.00" timeLoss="32.18" rerouteNo="1" devices="tripinfo_42" vType="typeWE" speedFactor="1.09" vaporized=""/>
    <tripinfo id="44" depart="68.00" departLane="1NS1_0" departPos="5.10" departSpeed="0.00" departDelay="4.00" arrival="132.00" arrivalLane="1NS2_0" arrivalPos="146.00" arrivalSpeed="14.30" duration="64.00" routeLength="495.59" waitingTime="2.00" waitingCount="1" stopTime="0.00" timeLoss="29.74" rerouteNo="1" devices="tripinfo_44" vType="typeWE" speedFactor="1.04" vaporized=""/>
    <tripinfo id="40" depart="58.00" departLane="1SN1_0" departPos="5.10" departSpeed="0.00" departDelay="0.00" arrival="133.00" arrivalLane="1SN2_0" arrivalPos="146.00" arrivalSpeed="13.99" duration="75.00" routeLength="495.59" waitingTime="13.00" waitingCount="1" stopTime="0.00" timeLoss="39.83" rerouteNo="1" devices="tripinfo_40" vType="typeWE" speedFactor="1.03" vaporized=""/>
    <tripinfo id="46" depart="74.00" departLane="1NS1_0" departPos="5.10" departSpeed="0.00" departDelay="7.00" arrival="135.00" arrivalLane="1NS2_0" arrivalPos="146.00" arrivalSpeed="13.71" duration="61.00" routeLength="495.59" waitingTime="0.00" waitingCount="0" stopTime="0.00" timeLoss="24.32" rerouteNo="1" devices="tripinfo_46" vType="typeWE" speedFactor="1.00" vaporized=""/>
    <tripinfo id="4" depart="6.00" departLane="1SN1_0" departPos="5.10" departSpeed="0.00" departDelay="0.00" arrival="136.00" arrivalLane="2NS2_0" arrivalPos="146.00" arrivalSpeed="14.30" duration="130.00" routeLength="777.56" waitingTime="38.00" waitingCount="2" stopTime="0.00" timeLoss="74.04" rerouteNo="2" devices="tripinfo_4" vType="typeWE" speedFactor="1.03" vaporized=""/>
    <tripinfo id="11" depart="23.00" departLane="1WO1_0" departPos="7.10" departSpeed="0.00" departDelay="0.00" arrival="143.00" arrivalLane="2NS2_0" arrivalPos="146.00" arrivalSpeed="14.19" duration="120.00" routeLength="834.92" waitingTime="19.00" waitingCount="1" stopTime="0.00" timeLoss="60.04" rerouteNo="2" devices="tripinfo_11" vType="typeNS" speedFactor="1.03" vaporized=""/>
    <tripinfo id="29" depart="46.00" departLane="1SN1_0" departPos="5.10" departSpeed="0.00" departDelay="0.00" arrival="147.00" arrivalLane="1OW4_0" arrivalPos="196.00" arrivalSpeed="12.69" duration="101.00" routeLength="543.86" waitingTime="30.00" waitingCount="2" stopTime="0.00" timeLoss="57.97" rerouteNo="1" devices="tripinfo_29" vType="typeWE" speedFactor="0.93" vaporized=""/>
    <tripinfo id="45" depart="65.00" departLane="1SN1_0" departPos="5.10" departSpeed="0.00" departDelay="0.00" arrival="149.00" arrivalLane="1OW4_0" arrivalPos="196.00" arrivalSpeed="14.23" duration="84.00" routeLength="543.86" waitingTime="12.00" waitingCount="2" stopTime="0.00" timeLoss="46.77" rerouteNo="1" devices="tripinfo_45" vType="typeWE" speedFactor="1.09" vaporized=""/>
    <tripinfo id="19" depart="32.00" departLane="2SN1_0" departPos="7.10" departSpeed="0.00" departDelay="0.00" arrival="152.00" arrivalLane="3NS2_0" arrivalPos="146.00" arrivalSpeed="16.00" duration="120.00" routeLength="775.56" waitingTime="28.00" waitingCount="2" stopTime="0.00" timeLoss="70.25" rerouteNo="2" devices="tripinfo_19" vType="typeNS" speedFactor="1.16" vaporized=""/>
    <tripinfo id="24" depart="38.00" departLane="3NS1_0" departPos="7.10" departSpeed="0.00" departDelay="0.00" arrival="152.00" arrivalLane="2NS2_0" arrivalPos="146.00" arrivalSpeed="11.22" duration="114.00" routeLength="783.19" waitingTime="22.00" waitingCount="1" stopTime="0.00" timeLoss="43.76" rerouteNo="2" devices="tripinfo_24" vType="typeNS" speedFactor="0.83" vaporized=""/>
    <tripinfo id="17" depart="37.00" departLane="2NS1_0" departPos="7.10" departSpeed="0.00" departDelay="6.00" arrival="156.00" arrivalLane="1SN2_0" arrivalPos="146.00" arrivalSpeed="12.93" duration="119.00" routeLength="775.56" waitingTime="21.00" waitingCount="2" stopTime="0.00" timeLoss="57.88" rerouteNo="2" devices="tripinfo_17" vType="typeNS" speedFactor="0.94" vaporized=""/>
    <tripinfo id="16" depart="31.00" departLane="2NS1_0" departPos="7.10" departSpeed="0.00" departDelay="2.00" arrival="160.00" arrivalLane="1OW4_0" arrivalPos="196.00" arrivalSpeed="11.83" duration="129.00" routeLength="834.92" waitingTime="26.00" waitingCount="2" stopTime="0.00" timeLoss="59.80" rerouteNo="2" devices="tripinfo_16" vType="typeNS" speedFactor="0.88" vaporized=""/>
    <tripinfo id="48" depart="69.00" departLane="1OW1_0" departPos="7.10" departSpeed="0.00" departDelay="0.00" arrival="160.00" arrivalLane="3NS2_0" arrivalPos="146.00" arrivalSpeed="11.90" duration="91.00" routeLength="491.86" waitingTime="23.00" waitingCount="1" stopTime="0.00" timeLoss="49.57" rerouteNo="1" devices="tripinfo_48" vType="typeNS" speedFactor="0.88" vaporized=""/>
    <tripinfo id="41" depart="61.00" departLane="2SN1_0" departPos="7.10" departSpeed="0.00" departDelay="0.00" arrival="162.00" arrivalLane="1OW4_0" arrivalPos="196.00" arrivalSpeed="13.09" duration="101.00" routeLength="842.55" waitingTime="7.00" waitingCount="1" stopTime="0.00" timeLoss="36.57" rerouteNo="2" devices="tripinfo_41" vType="typeNS" speedFactor="0.96" vaporized=""/>
    <tripinfo id="76" depart="110.00" departLane="1WO1_0" departPos="7.10" departSpeed="0.00" departDelay="4.00" arrival="162.00" arrivalLane="1SN2_0" arrivalPos="146.00" arrivalSpeed="14.00" duration="52.00" routeLength="541.86" waitingTime="0.00" waitingCount="0" stopTime="0.00" timeLoss="12.62" rerouteNo="1" devices="tripinfo_76" vType="typeNS" speedFactor="1.03" vaporized=""/>
    <tripinfo id="32" depart="52.00" departLane="2SN1_0" departPos="7.10" departSpeed="0.00" departDelay="2.00" arrival="164.00" arrivalLane="2SN2_0" arrivalPos="146.00" arrivalSpeed="13.84" duration="112.00" routeLength="493.59" waitingTime="42.00" waitingCount="2" stopTime="0.00" timeLoss="76.20" rerouteNo="1" devices="tripinfo_32" vType="typeNS" speedFactor="1.01" vaporized=""/>
    <tripinfo id="25" depart="43.00" departLane="2NS1_0" departPos="7.10" departSpeed="0.00" departDelay="2.00" arrival="166.00" arrivalLane="2NS2_0" arrivalPos="146.00" arrivalSpeed="11.86" duration="123.00" routeLength="493.59" waitingTime="49.00" waitingCount="2" stopTime="0.00" timeLoss="81.52" rerouteNo="1" devices="tripinfo_25" vType="typeNS" speedFactor="0.87" vaporized=""/>
    <tripinfo id="35" depart="52.00" departLane="2NS1_0" departPos="7.10" departSpeed="0.00" departDelay="0.00" arrival="168.00" arrivalLane="2NS2_0" arrivalPos="146.00" arrivalSpeed="13.14" duration="116.00" routeLength="493.59" waitingTime="41.00" waitingCount="2" stopTime="0.00" timeLoss="80.28" rerouteNo="1" devices="tripinfo_35" vType="typeNS" speedFactor="1.02" vaporized=""/>
    <tripinfo id="52" depart="75.00" departLane="2NS1_0" departPos="7.10" departSpeed="0.00" departDelay="0.00" arrival="169.00" arrivalLane="2NS2_0" arrivalPos="146.00" arrivalSpeed="12.93" duration="94.00" routeLength="493.59" waitingTime="30.00" waitingCount="1" stopTime="0.00" timeLoss="58.93" rerouteNo="1" devices="tripinfo_52" vType="typeNS" speedFactor="1.02" vaporized=""/>
    <tripinfo id="60" depart="86.00" departLane="3SN1_0" departPos="7.10" departSpeed="0.00" departDelay="0.00" arrival="170.00" arrivalLane="3SN2_0" arrivalPos="146.00" arrivalSpeed="15.02" duration="84.00" routeLength="493.59" waitingTime="25.00" waitingCount="1" stopTime="0.00" timeLoss="50.20" rerouteNo="1" devices="tripinfo_60" vType="typeNS" speedFactor="1.08" vaporized=""/>
    <tripinfo id="79" depart="112.00" departLane="3NS1_0" departPos="7.10" departSpeed="0.00" departDelay="0.00" arrival="171.00" arrivalLane="3NS2_0" arrivalPos="146.00" arrivalSpeed="14.99" duration="59.00" routeLength="493.59" waitingTime="0.00" waitingCount="0" stopTime="0.00" timeLoss="25.77" rerouteNo="1" devices="tripinfo_79" vType="typeNS" speedFactor="1.09" vaporized=""/>
    <tripinfo id="69" depart="96.00" departLane="3SN1_0" departPos="7.10" departSpeed="0.00" departDelay="0.00" arrival="172.00" arrivalLane="3SN2_0" arrivalPos="146.00" arrivalSpeed="13.84" duration="76.00" routeLength="493.59" waitingTime="16.00" waitingCount="1" stopTime="0.00" timeLoss="40.95" rerouteNo="1" devices="tripinfo_69" vType="typeNS" speedFactor="1.02" vaporized=""/>
    <tripinfo id="86" depart="121.00" departLane="3NS1_0" departPos="7.10" departSpeed="0.00" departDelay="0.00" arrival="173.00" arrivalLane="3NS2_0" arrivalPos="146.00" arrivalSpeed="13.54" duration="52.00" routeLength="493.59" waitingTime="0.00" waitingCount="0" stopTime="0.00" timeLoss="16.38" rerouteNo="1" devices="tripinfo_86" vType="typeNS" speedFactor="1.00" vaporized=""/>
    <tripinfo id="70" depart="101.00" departLane="3SN1_0" departPos="7.10" departSpeed="0.00" departDelay="2.00" arrival="174.00" arrivalLane="3SN2_0" arrivalPos="146.00" arrivalSpeed="14.20" duration="73.00" routeLength="493.59" waitingTime="12.00" waitingCount="1" stopTime="0.00" timeLoss="37.87" rerouteNo="1" devices="tripinfo_70" vType="typeNS" speedFactor="1.02" vaporized=""/>
    <tripinfo id="47" depart="79.00" departLane="1NS1_0" departPos="5.10" departSpeed="0.00" departDelay="12.00" arrival="179.00" arrivalLane="1NS2_0" arrivalPos="146.00" arrivalSpeed="12.47" duration="100.00" routeLength="495.59" waitingTime="35.00" waitingCount="1" stopTime="0.00" timeLoss="60.20" rerouteNo="1" devices="tripinfo_47" vType="typeWE" speedFactor="0.90" vaporized=""/>
    <tripinfo id="49" depart="84.00" departLane="1NS1_0" departPos="5.10" departSpeed="0.00" departDelay="13.00" arrival="182.00" arrivalLane="1NS2_0" arrivalPos="146.00" arrivalSpeed="11.62" duration="98.00" routeLength="495.59" waitingTime="34.00" waitingCount="1" stopTime="0.00" timeLoss="55.67" rerouteNo="1" devices="tripinfo_49" vType="typeWE" speedFactor="0.85" vaporized=""/>
    <tripinfo id="58" depart="99.00" departLane="1NS1_0" departPos="5.10" departSpeed="0.00" departDelay="15.00" arrival="185.00" arrivalLane="1OW4_0" arrivalPos="196.00" arrivalSpeed="13.90" duration="86.00" routeLength="536.23" waitingTime="19.00" waitingCount="1" stopTime="0.00" timeLoss="46.86" rerouteNo="1" devices="tripinfo_58" vType="typeWE" speedFactor="1.02" vaporized=""/>
    <tripinfo id="53" depart="89.00" departLane="1NS1_0" departPos="5.10" departSpeed="0.00" departDelay="11.00" arrival="186.00" arrivalLane="2SN2_0" arrivalPos="146.00" arrivalSpeed="15.05" duration="97.00" routeLength="792.82" waitingTime="14.00" waitingCount="1" stopTime="0.00" timeLoss="43.31" rerouteNo="2" devices="tripinfo_53" vType="typeWE" speedFactor="1.10" vaporized=""/>
    <tripinfo id="27" depart="45.00" departLane="1OW1_0" departPos="7.10" departSpeed="0.00" departDelay="0.00" arrival="189.00" arrivalLane="2NS2_0" arrivalPos="146.00" arrivalSpeed="12.83" duration="144.00" routeLength="792.55" waitingTime="39.00" waitingCount="2" stopTime="0.00" timeLoss="82.59" rerouteNo="2" devices="tripinfo_27" vType="typeNS" speedFactor="0.95" vaporized=""/>
    <tripinfo id="43" depart="63.00" departLane="1WO1_0" departPos="7.10" departSpeed="0.00" departDelay="0.00" arrival="189.00" arrivalLane="2SN2_0" arrivalPos="146.00" arrivalSpeed="14.12" duration="126.00" routeLength="842.55" waitingTime="29.00" waitingCount="1" stopTime="0.00" timeLoss="66.18" rerouteNo="2" devices="tripinfo_43" vType="typeNS" speedFactor="1.04" vaporized=""/>
    <tripinfo id="62" depart="87.00" departLane="3NS1_0" departPos="7.10" departSpeed="0.00" departDelay="0.00" arrival="193.00" arrivalLane="2SN2_0" arrivalPos="146.00" arrivalSpeed="14.08" duration="106.00" routeLength="775.56" waitingTime="23.00" waitingCount="1" stopTime="0.00" timeLoss="49.18" rerouteNo="2" devices="tripinfo_62" vType="typeNS" speedFactor="1.02" vaporized=""/>
    <tripinfo id="20" depart="39.00" departLane="1NS1_0" departPos="5.10" departSpeed="0.00" departDelay="5.00" arrival="201.00" arrivalLane="1WO4_0" arrivalPos="146.00" arrivalSpeed="14.01" duration="162.00" routeLength="1095.24" waitingTime="34.00" waitingCount="2" stopTime="0.00" timeLoss="83.76" rerouteNo="3" devices="tripinfo_20" vType="typeWE" speedFactor="1.02" vaporized=""/>
    <tripinfo id="31" depart="51.00" departLane="1OW1_0" departPos="7.10" departSpeed="0.00" departDelay="4.00" arrival="201.00" arrivalLane="3SN2_0" arrivalPos="146.00" arrivalSpeed="15.91" duration="150.00" routeLength="484.23" waitingTime="76.00" waitingCount="2" stopTime="0.00" timeLoss="118.29" rerouteNo="1" devices="tripinfo_31" vType="typeNS" speedFactor="1.15" vaporized=""/>
    <tripinfo id="37" depart="57.00" departLane="1OW1_0" departPos="7.10" departSpeed="0.00" departDelay="2.00" arrival="202.00" arrivalLane="3SN2_0" arrivalPos="146.00" arrivalSpeed="16.06" duration="145.00" routeLength="484.23" waitingTime="75.00" waitingCount="2" stopTime="0.00" timeLoss="114.58" rerouteNo="1" devices="tripinfo_37" vType="typeNS" speedFactor="1.18" vaporized=""/>
    <tripinfo id="64" depart="89.00" departLane="1WO1_0" departPos="7.10" departSpeed="0.00" departDelay="0.00" arrival="203.00" arrivalLane="2SN2_0" arrivalPos="146.00" arrivalSpeed="12.87" duration="114.00" routeLength="842.55" waitingTime="7.00" waitingCount="2" stopTime="0.00" timeLoss="47.73" rerouteNo="2" devices="tripinfo_64" vType="typeNS" speedFactor="0.94" vaporized=""/>
    <tripinfo id="56" depart="81.00" departLane="2SN1_0" departPos="7.10" departSpeed="0.00" departDelay="0.00" arrival="204.00" arrivalLane="3NS2_0" arrivalPos="146.00" arrivalSpeed="12.11" duration="123.00" routeLength="775.56" waitingTime="26.00" waitingCount="2" stopTime="0.00" timeLoss="59.31" rerouteNo="2" devices="tripinfo_56" vType="typeNS" speedFactor="0.90" vaporized=""/>
    <tripinfo id="90" depart="131.00" departLane="1WO1_0" departPos="7.10" departSpeed="0.00" departDelay="5.00" arrival="205.00" arrivalLane="1NS2_0" arrivalPos="146.00" arrivalSpeed="13.99" duration="74.00" routeLength="534.23" waitingTime="11.00" waitingCount="1" stopTime="0.00" timeLoss="35.01" rerouteNo="1" devices="tripinfo_90" vType="typeNS" speedFactor="1.02" vaporized=""/>
    <tripinfo id="65" depart="99.00" departLane="2SN1_0" departPos="7.10" departSpeed="0.00" departDelay="10.00" arrival="208.00" arrivalLane="1OW4_0" arrivalPos="196.00" arrivalSpeed="11.98" duration="109.00" routeLength="842.55" waitingTime="11.00" waitingCount="2" stopTime="0.00" timeLoss="38.96" rerouteNo="2" devices="tripinfo_65" vType="typeNS" speedFactor="0.88" vaporized=""/>
    <tripinfo id="84" depart="122.00" departLane="1OW1_0" departPos="7.10" departSpeed="0.00" departDelay="3.00" arrival="210.00" arrivalLane="3NS2_0" arrivalPos="146.00" arrivalSpeed="15.55" duration="88.00" routeLength="491.86" waitingTime="21.00" waitingCount="2" stopTime="0.00" timeLoss="55.93" rerouteNo="1" devices="tripinfo_84" vType="typeNS" speedFactor="1.15" vaporized=""/>
    <tripinfo id="5" depart="10.00" departLane="1NS1_0" departPos="5.10" departSpeed="0.00" departDelay="0.00" arrival="212.00" arrivalLane="3SN2_0" arrivalPos="146.00" arrivalSpeed="11.42" duration="202.00" routeLength="1093.51" waitingTime="54.00" waitingCount="5" stopTime="0.00" timeLoss="105.41" rerouteNo="3" devices="tripinfo_5" vType="typeWE" speedFactor="0.83" vaporized=""/>
    <tripinfo id="57" depart="87.00" departLane="2SN1_0" departPos="7.10" departSpeed="0.00" departDelay="5.00" arrival="212.00" arrivalLane="2SN2_0" arrivalPos="146.00" arrivalSpeed="15.76" duration="125.00" routeLength="493.59" waitingTime="53.00" waitingCount="2" stopTime="0.00" timeLoss="92.96" rerouteNo="1" devices="tripinfo_57" vType="typeNS" speedFactor="1.14" vaporized=""/>
    <tripinfo id="59" depart="94.00" departLane="2SN1_0" departPos="7.10" departSpeed="0.00" departDelay="8.00" arrival="214.00" arrivalLane="2SN2_0" arrivalPos="146.00" arrivalSpeed="13.38" duration="120.00" routeLength="493.59" waitingTime="49.00" waitingCount="2" stopTime="0.00" timeLoss="83.16" rerouteNo="1" devices="tripinfo_59" vType="typeNS" speedFactor="0.97" vaporized=""/>
    <tripinfo id="83" depart="119.00" departLane="2NS1_0" departPos="7.10" departSpeed="0.00" departDelay="2.00" arrival="214.00" arrivalLane="3SN2_0" arrivalPos="146.00" arrivalSpeed="12.57" duration="95.00" routeLength="790.82" waitingTime="0.00" waitingCount="0" stopTime="0.00" timeLoss="34.13" rerouteNo="2" devices="tripinfo_83" vType="typeNS" speedFactor="0.97" vaporized=""/>
    <tripinfo id="89" depart="125.00" departLane="1WO1_0" departPos="7.10" departSpeed="0.00" departDelay="0.00" arrival="215.00" arrivalLane="1SN2_0" arrivalPos="146.00" arrivalSpeed="13.96" duration="90.00" routeLength="541.86" waitingTime="19.00" waitingCount="2" stopTime="0.00" timeLoss="50.29" rerouteNo="1" devices="tripinfo_89" vType="typeNS" speedFactor="1.02" vaporized=""/>
    <tripinfo id="94" depart="143.00" departLane="2NS1_0" departPos="7.10" departSpeed="0.00" departDelay="8.00" arrival="215.00" arrivalLane="2NS2_0" arrivalPos="146.00" arrivalSpeed="14.79" duration="72.00" routeLength="493.59" waitingTime="12.00" waitingCount="1" stopTime="0.00" timeLoss="39.31" rerouteNo="1" devices="tripinfo_94" vType="typeNS" speedFactor="1.09" vaporized=""/>
    <tripinfo id="74" depart="111.00" departLane="2SN1_0" departPos="7.10" departSpeed="0.00" departDelay="10.00" arrival="216.00" arrivalLane="2SN2_0" arrivalPos="146.00" arrivalSpeed="13.18" duration="105.00" routeLength="493.59" waitingTime="34.00" waitingCount="1" stopTime="0.00" timeLoss="67.61" rerouteNo="1" devices="tripinfo_74" vType="typeNS" speedFactor="0.96" vaporized=""/>
    <tripinfo id="97" depart="138.00" departLane="1WO1_0" departPos="7.10" departSpeed="0.00" departDelay="0.00" arrival="218.00" arrivalLane="1SN2_0" arrivalPos="146.00" arrivalSpeed="12.44" duration="80.00" routeLength="541.86" waitingTime="5.00" waitingCount="2" stopTime="0.00" timeLoss="35.26" rerouteNo="1" devices="tripinfo_97" vType="typeNS" speedFactor="0.91" vaporized=""/>
    <tripinfo id="72" depart="107.00" departLane="3SN1_0" departPos="7.10" departSpeed="0.00" departDelay="7.00" arrival="219.00" arrivalLane="3SN2_0" arrivalPos="146.00" arrivalSpeed="13.03" duration="112.00" routeLength="493.59" waitingTime="43.00" waitingCount="2" stopTime="0.00" timeLoss="73.58" rerouteNo="1" devices="tripinfo_72" vType="typeNS" speedFactor="0.94" vaporized=""/>
    <tripinfo id="103" depart="145.00" departLane="3NS1_0" departPos="7.10" departSpeed="0.00" departDelay="0.00" arrival="219.00" arrivalLane="3NS2_0" arrivalPos="146.00" arrivalSpeed="12.89" duration="74.00" routeLength="493.59" waitingTime="12.00" waitingCount="1" stopTime="0.00" timeLoss="36.26" rerouteNo="1" devices="tripinfo_103" vType="typeNS" speedFactor="0.95" vaporized=""/>
    <tripinfo id="81" depart="114.00" departLane="3SN1_0" departPos="7.10" departSpeed="0.00" departDelay="0.00" arrival="221.00" arrivalLane="3SN2_0" arrivalPos="146.00" arrivalSpeed="13.63" duration="107.00" routeLength="493.59" waitingTime="36.00" waitingCount="2" stopTime="0.00" timeLoss="70.91" rerouteNo="1" devices="tripinfo_81" vType="typeNS" speedFactor="1.00" vaporized=""/>
    <tripinfo id="96" depart="137.00" departLane="3SN1_0" departPos="7.10" departSpeed="0.00" departDelay="0.00" arrival="223.00" arrivalLane="3SN2_0" arrivalPos="146.00" arrivalSpeed="13.93" duration="86.00" routeLength="493.59" waitingTime="22.00" waitingCount="1" stopTime="0.00" timeLoss="50.37" rerouteNo="1" devices="tripinfo_96" vType="typeNS" speedFactor="1.01" vaporized=""/>