<?xml version="1.0" encoding="UTF-8"?>

<!-- generated on 01/23/20 21:51:34 by Eclipse SUMO Version 1.3.1
<configuration xmlns:xsi="http://www.w3.org/2001/XMLSchema-instance" xsi:noNamespaceSchemaLocation="http://sumo.dlr.de/xsd/sumoConfiguration.xsd">

    <input>
        <net-file value="Data/Cross_3_3.net.xml"/>
        <route-files value="Data/Cross12.rou.xml"/>
        <additional-files value="Data/rerouter.xml,Data/trafficLight.add.xml"/>
    </input>

    <output>
        <tripinfo-output value="tripinfo.xml"/>
    </output>

    <report>
        <log value="logfile.txt"/>
    </report>

    <traci_server>
        <remote-port value="56701"/>
    </traci_server>

</configuration>
-->

<tripinfos xmlns:xsi="http://www.w3.org/2001/XMLSchema-instance" xsi:noNamespaceSchemaLocation="http://sumo.dlr.de/xsd/tripinfo_file.xsd">
    <tripinfo id="17" depart="21.00" departLane="2SN1_0" departPos="5.10" departSpeed="0.00" departDelay="1.00" arrival="118.00" arrivalLane="3OW4_0" arrivalPos="196.00" arrivalSpeed="12.92" duration="97.00" routeLength="894.55" waitingTime="4.00" waitingCount="1" stopTime="0.00" timeLoss="27.73" rerouteNo="2" devices="tripinfo_17" vType="Cartype" speedFactor="0.94" vaporized=""/>
    <tripinfo id="2" depart="3.00" departLane="2OW1_0" departPos="5.10" departSpeed="0.00" departDelay="0.00" arrival="122.00" arrivalLane="3NS4_0" arrivalPos="196.00" arrivalSpeed="13.92" duration="119.00" routeLength="894.55" waitingTime="15.00" waitingCount="2" stopTime="0.00" timeLoss="54.64" rerouteNo="2" devices="tripinfo_2" vType="Cartype" speedFactor="1.01" vaporized=""/>
    <tripinfo id="10" depart="15.00" departLane="2WO1_0" departPos="5.10" departSpeed="0.00" departDelay="1.00" arrival="126.00" arrivalLane="2SN4_0" arrivalPos="196.00" arrivalSpeed="14.95" duration="111.00" routeLength="1195.24" waitingTime="4.00" waitingCount="1" stopTime="0.00" timeLoss="30.54" rerouteNo="3" devices="tripinfo_10" vType="Cartype" speedFactor="1.09" vaporized=""/>
    <tripinfo id="6" depart="10.00" departLane="2WO1_0" departPos="5.10" departSpeed="0.00" departDelay="3.00" arrival="128.00" arrivalLane="2NS4_0" arrivalPos="196.00" arrivalSpeed="14.51" duration="118.00" routeLength="1187.61" waitingTime="6.00" waitingCount="1" stopTime="0.00" timeLoss="34.37" rerouteNo="3" devices="tripinfo_6" vType="Cartype" speedFactor="1.05" vaporized=""/>
    <tripinfo id="19" depart="26.00" departLane="2SN1_0" departPos="5.10" departSpeed="0.00" departDelay="5.00" arrival="137.00" arrivalLane="3WO4_0" arrivalPos="196.00" arrivalSpeed="15.78" duration="111.00" routeLength="886.92" waitingTime="13.00" waitingCount="2" stopTime="0.00" timeLoss="55.23" rerouteNo="2" devices="tripinfo_19" vType="Cartype" speedFactor="1.16" vaporized=""/>
    <tripinfo id="12" depart="23.00" departLane="2OW1_0" departPos="5.10" departSpeed="0.00" departDelay="8.00" arrival="138.00" arrivalLane="3SN4_0" arrivalPos="196.00" arrivalSpeed="14.20" duration="115.00" routeLength="886.92" waitingTime="20.00" waitingCount="1" stopTime="0.00" timeLoss="53.05" rerouteNo="2" devices="tripinfo_12" vType="Cartype" speedFactor="1.05" vaporized=""/>
    <tripinfo id="15" depart="25.00" departLane="2WO1_0" departPos="5.10" departSpeed="0.00" departDelay="8.00" arrival="143.00" arrivalLane="3OW4_0" arrivalPos="196.00" arrivalSpeed="12.68" duration="118.00" routeLength="877.56" waitingTime="14.00" waitingCount="2" stopTime="0.00" timeLoss="47.46" rerouteNo="2" devices="tripinfo_15" vType="Cartype" speedFactor="0.93" vaporized=""/>
    <tripinfo id="22" depart="30.00" departLane="2WO1_0" departPos="5.10" departSpeed="0.00" departDelay="8.00" arrival="144.00" arrivalLane="1NS4_0" arrivalPos="196.00" arrivalSpeed="13.54" duration="114.00" routeLength="886.92" waitingTime="11.00" waitingCount="2" stopTime="0.00" timeLoss="47.57" rerouteNo="2" devices="tripinfo_22" vType="Cartype" speedFactor="0.98" vaporized=""/>
    <tripinfo id="0" depart="2.00" departLane="2SN1_0" departPos="5.10" departSpeed="0.00" departDelay="0.00" arrival="147.00" arrivalLane="2WO4_0" arrivalPos="196.00" arrivalSpeed="14.41" duration="145.00" routeLength="1187.61" waitingTime="22.00" waitingCount="2" stopTime="0.00" timeLoss="62.89" rerouteNo="3" devices="tripinfo_0" vType="Cartype" speedFactor="1.06" vaporized=""/>
    <tripinfo id="1" depart="7.00" departLane="2SN1_0" departPos="5.10" departSpeed="0.00" departDelay="4.00" arrival="150.00" arrivalLane="2WO4_0" arrivalPos="196.00" arrivalSpeed="12.81" duration="143.00" routeLength="1187.61" waitingTime="15.00" waitingCount="2" stopTime="0.00" timeLoss="50.55" rerouteNo="3" devices="tripinfo_1" vType="Cartype" speedFactor="0.94" vaporized=""/>
    <tripinfo id="32" depart="33.00" departLane="2NS1_0" departPos="5.10" departSpeed="0.00" departDelay="3.00" arrival="154.00" arrivalLane="1WO4_0" arrivalPos="196.00" arrivalSpeed="13.77" duration="121.00" routeLength="894.55" waitingTime="22.00" waitingCount="1" stopTime="0.00" timeLoss="55.88" rerouteNo="2" devices="tripinfo_32" vType="Cartype" speedFactor="1.01" vaporized=""/>
    <tripinfo id="44" depart="77.00" departLane="2SN1_0" departPos="5.10" departSpeed="0.00" departDelay="41.00" arrival="155.00" arrivalLane="3OW4_0" arrivalPos="196.00" arrivalSpeed="14.11" duration="78.00" routeLength="894.55" waitingTime="0.00" waitingCount="0" stopTime="0.00" timeLoss="14.56" rerouteNo="2" devices="tripinfo_44" vType="Cartype" speedFactor="1.04" vaporized=""/>
    <tripinfo id="27" depart="38.00" departLane="2OW1_0" departPos="5.10" departSpeed="0.00" departDelay="13.00" arrival="156.00" arrivalLane="3WO4_0" arrivalPos="196.00" arrivalSpeed="13.08" duration="118.00" routeLength="892.82" waitingTime="14.00" waitingCount="2" stopTime="0.00" timeLoss="49.05" rerouteNo="2" devices="tripinfo_27" vType="Cartype" speedFactor="0.95" vaporized=""/>
    <tripinfo id="41" depart="49.00" departLane="2OW1_0" departPos="5.10" departSpeed="0.00" departDelay="15.00" arrival="156.00" arrivalLane="3NS4_0" arrivalPos="196.00" arrivalSpeed="13.20" duration="107.00" routeLength="894.55" waitingTime="5.00" waitingCount="1" stopTime="0.00" timeLoss="38.53" rerouteNo="2" devices="tripinfo_41" vType="Cartype" speedFactor="0.96" vaporized=""/>
    <tripinfo id="26" depart="40.00" departLane="2WO1_0" departPos="5.10" departSpeed="0.00" departDelay="15.00" arrival="157.00" arrivalLane="1SN4_0" arrivalPos="196.00" arrivalSpeed="12.73" duration="117.00" routeLength="894.55" waitingTime="18.00" waitingCount="1" stopTime="0.00" timeLoss="45.25" rerouteNo="2" devices="tripinfo_26" vType="Cartype" speedFactor="0.92" vaporized=""/>
    <tripinfo id="7" depart="13.00" departLane="2OW1_0" departPos="5.10" departSpeed="0.00" departDelay="6.00" arrival="164.00" arrivalLane="2NS4_0" arrivalPos="196.00" arrivalSpeed="12.10" duration="151.00" routeLength="1195.24" waitingTime="8.00" waitingCount="2" stopTime="0.00" timeLoss="52.85" rerouteNo="3" devices="tripinfo_7" vType="Cartype" speedFactor="0.89" vaporized=""/>
    <tripinfo id="11" depart="18.00" departLane="2OW1_0" departPos="5.10" departSpeed="0.00" departDelay="4.00" arrival="166.00" arrivalLane="2NS4_0" arrivalPos="196.00" arrivalSpeed="13.37" duration="148.00" routeLength="1195.24" waitingTime="8.00" waitingCount="2" stopTime="0.00" timeLoss="62.84" rerouteNo="3" devices="tripinfo_11" vType="Cartype" speedFactor="1.03" vaporized=""/>
    <tripinfo id="21" depart="27.00" departLane="2NS1_0" departPos="5.10" departSpeed="0.00" departDelay="5.00" arrival="167.00" arrivalLane="2NS4_0" arrivalPos="196.00" arrivalSpeed="13.17" duration="140.00" routeLength="1196.97" waitingTime="11.00" waitingCount="3" stopTime="0.00" timeLoss="54.57" rerouteNo="3" devices="tripinfo_21" vType="Cartype" speedFactor="1.01" vaporized=""/>
    <tripinfo id="55" depart="64.00" departLane="2OW1_0" departPos="5.10" departSpeed="0.00" departDelay="19.00" arrival="169.00" arrivalLane="3SN4_0" arrivalPos="196.00" arrivalSpeed="13.66" duration="105.00" routeLength="886.92" waitingTime="15.00" waitingCount="1" stopTime="0.00" timeLoss="39.85" rerouteNo="2" devices="tripinfo_55" vType="Cartype" speedFactor="1.00" vaporized=""/>
    <tripinfo id="43" depart="53.00" departLane="2NS1_0" departPos="5.10" departSpeed="0.00" departDelay="17.00" arrival="171.00" arrivalLane="1OW4_0" arrivalPos="196.00" arrivalSpeed="14.05" duration="118.00" routeLength="886.92" waitingTime="17.00" waitingCount="2" stopTime="0.00" timeLoss="55.72" rerouteNo="2" devices="tripinfo_43" vType="Cartype" speedFactor="1.04" vaporized=""/>
    <tripinfo id="61" depart="97.00" departLane="2SN1_0" departPos="5.10" departSpeed="0.00" departDelay="49.00" arrival="171.00" arrivalLane="3OW3_0" arrivalPos="92.00" arrivalSpeed="14.95" duration="74.00" routeLength="489.86" waitingTime="7.00" waitingCount="2" stopTime="0.00" timeLoss="41.98" rerouteNo="1" devices="tripinfo_61" vType="Cartype" speedFactor="1.12" vaporized=""/>
    <tripinfo id="5" depart="8.00" departLane="2OW1_0" departPos="5.10" departSpeed="0.00" departDelay="2.00" arrival="172.00" arrivalLane="2OW4_0" arrivalPos="196.00" arrivalSpeed="11.18" duration="164.00" routeLength="1197.26" waitingTime="16.00" waitingCount="3" stopTime="0.00" timeLoss="59.79" rerouteNo="3" devices="tripinfo_5" vType="Cartype" speedFactor="0.83" vaporized=""/>
    <tripinfo id="28" depart="41.00" departLane="2SN1_0" departPos="5.10" departSpeed="0.00" departDelay="15.00" arrival="174.00" arrivalLane="2OW4_0" arrivalPos="196.00" arrivalSpeed="12.76" duration="133.00" routeLength="1195.53" waitingTime="6.00" waitingCount="2" stopTime="0.00" timeLoss="55.59" rerouteNo="3" devices="tripinfo_28" vType="Cartype" speedFactor="1.13" vaporized=""/>
    <tripinfo id="34" depart="61.00" departLane="2SN1_0" departPos="5.10" departSpeed="0.00" departDelay="30.00" arrival="174.00" arrivalLane="3WO4_0" arrivalPos="196.00" arrivalSpeed="13.75" duration="113.00" routeLength="886.92" waitingTime="7.00" waitingCount="2" stopTime="0.00" timeLoss="47.35" rerouteNo="2" devices="tripinfo_34" vType="Cartype" speedFactor="0.99" vaporized=""/>
    <tripinfo id="4" depart="6.00" departLane="2NS1_0" departPos="5.10" departSpeed="0.00" departDelay="0.00" arrival="175.00" arrivalLane="3WO4_0" arrivalPos="196.00" arrivalSpeed="14.16" duration="169.00" routeLength="1495.93" waitingTime="13.00" waitingCount="2" stopTime="0.00" timeLoss="63.59" rerouteNo="4" devices="tripinfo_4" vType="Cartype" speedFactor="1.03" vaporized=""/>
    <tripinfo id="8" depart="11.00" departLane="2NS1_0" departPos="5.10" departSpeed="0.00" departDelay="2.00" arrival="175.00" arrivalLane="2WO4_0" arrivalPos="196.00" arrivalSpeed="12.65" duration="164.00" routeLength="1195.24" waitingTime="27.00" waitingCount="3" stopTime="0.00" timeLoss="70.61" rerouteNo="3" devices="tripinfo_8" vType="Cartype" speedFactor="0.94" vaporized=""/>
    <tripinfo id="42" depart="54.00" departLane="2OW1_0" departPos="5.10" departSpeed="0.00" departDelay="19.00" arrival="181.00" arrivalLane="2NS4_0" arrivalPos="196.00" arrivalSpeed="15.02" duration="127.00" routeLength="1184.15" waitingTime="5.00" waitingCount="1" stopTime="0.00" timeLoss="46.49" rerouteNo="3" devices="tripinfo_42" vType="Cartype" speedFactor="1.09" vaporized=""/>
    <tripinfo id="67" depart="85.00" departLane="2OW1_0" departPos="5.10" departSpeed="0.00" departDelay="33.00" arrival="186.00" arrivalLane="3WO4_0" arrivalPos="196.00" arrivalSpeed="12.31" duration="101.00" routeLength="892.82" waitingTime="4.00" waitingCount="1" stopTime="0.00" timeLoss="28.55" rerouteNo="2" devices="tripinfo_67" vType="Cartype" speedFactor="0.91" vaporized=""/>
    <tripinfo id="51" depart="74.00" departLane="2NS1_0" departPos="5.10" departSpeed="0.00" departDelay="33.00" arrival="187.00" arrivalLane="1WO4_0" arrivalPos="196.00" arrivalSpeed="16.09" duration="113.00" routeLength="894.55" waitingTime="24.00" waitingCount="1" stopTime="0.00" timeLoss="57.16" rerouteNo="2" devices="tripinfo_51" vType="Cartype" speedFactor="1.17" vaporized=""/>
    <tripinfo id="24" depart="35.00" departLane="2WO1_0" departPos="5.10" departSpeed="0.00" departDelay="11.00" arrival="188.00" arrivalLane="2WO4_0" arrivalPos="196.00" arrivalSpeed="11.42" duration="153.00" routeLength="1196.97" waitingTime="15.00" waitingCount="2" stopTime="0.00" timeLoss="48.25" rerouteNo="3" devices="tripinfo_24" vType="Cartype" speedFactor="0.83" vaporized=""/>
    <tripinfo id="50" depart="55.00" departLane="2WO1_0" departPos="5.10" departSpeed="0.00" departDelay="15.00" arrival="190.00" arrivalLane="1SN4_0" arrivalPos="196.00" arrivalSpeed="11.72" duration="135.00" routeLength="894.55" waitingTime="23.00" waitingCount="2" stopTime="0.00" timeLoss="58.95" rerouteNo="2" devices="tripinfo_50" vType="Cartype" speedFactor="0.85" vaporized=""/>
    <tripinfo id="69" depart="76.00" departLane="2WO1_0" departPos="5.10" departSpeed="0.00" departDelay="21.00" arrival="192.00" arrivalLane="1SN4_0" arrivalPos="196.00" arrivalSpeed="13.05" duration="116.00" routeLength="894.55" waitingTime="14.00" waitingCount="1" stopTime="0.00" timeLoss="51.72" rerouteNo="2" devices="tripinfo_69" vType="Cartype" speedFactor="1.02" vaporized=""/>
    <tripinfo id="74" depart="101.00" departLane="2OW1_0" departPos="5.10" departSpeed="0.00" departDelay="44.00" arrival="193.00" arrivalLane="3NS4_0" arrivalPos="196.00" arrivalSpeed="13.06" duration="92.00" routeLength="894.55" waitingTime="0.00" waitingCount="0" stopTime="0.00" timeLoss="23.69" rerouteNo="2" devices="tripinfo_74" vType="Cartype" speedFactor="0.96" vaporized=""/>
    <tripinfo id="16" depart="28.00" departLane="2OW1_0" departPos="5.10" departSpeed="0.00" departDelay="9.00" arrival="194.00" arrivalLane="2NS4_0" arrivalPos="196.00" arrivalSpeed="12.01" duration="166.00" routeLength="1195.24" waitingTime="26.00" waitingCount="3" stopTime="0.00" timeLoss="67.23" rerouteNo="3" devices="tripinfo_16" vType="Cartype" speedFactor="0.88" vaporized=""/>
    <tripinfo id="35" depart="43.00" departLane="2OW1_0" departPos="5.10" departSpeed="0.00" departDelay="12.00" arrival="194.00" arrivalLane="2SN4_0" arrivalPos="196.00" arrivalSpeed="13.85" duration="151.00" routeLength="1187.61" waitingTime="14.00" waitingCount="3" stopTime="0.00" timeLoss="65.62" rerouteNo="3" devices="tripinfo_35" vType="Cartype" speedFactor="1.02" vaporized=""/>
    <tripinfo id="38" depart="48.00" departLane="2NS1_0" departPos="5.10" departSpeed="0.00" departDelay="15.00" arrival="195.00" arrivalLane="2OW4_0" arrivalPos="196.00" arrivalSpeed="15.14" duration="147.00" routeLength="1187.90" waitingTime="25.00" waitingCount="2" stopTime="0.00" timeLoss="68.12" rerouteNo="3" devices="tripinfo_38" vType="Cartype" speedFactor="1.10" vaporized=""/>
    <tripinfo id="58" depart="60.00" departLane="2WO1_0" departPos="5.10" departSpeed="0.00" departDelay="14.00" arrival="195.00" arrivalLane="2SN4_0" arrivalPos="196.00" arrivalSpeed="14.07" duration="135.00" routeLength="1195.24" waitingTime="9.00" waitingCount="2" stopTime="0.00" timeLoss="50.06" rerouteNo="3" devices="tripinfo_58" vType="Cartype" speedFactor="1.02" vaporized=""/>
    <tripinfo id="37" depart="43.00" departLane="2NS1_0" departPos="5.10" departSpeed="0.00" departDelay="10.00" arrival="196.00" arrivalLane="2NS4_0" arrivalPos="196.00" arrivalSpeed="13.43" duration="153.00" routeLength="1196.97" waitingTime="34.00" waitingCount="2" stopTime="0.00" timeLoss="79.55" rerouteNo="3" devices="tripinfo_37" vType="Cartype" speedFactor="1.18" vaporized=""/>
    <tripinfo id="30" depart="46.00" departLane="2SN1_0" departPos="5.10" departSpeed="0.00" departDelay="18.00" arrival="201.00" arrivalLane="2OW4_0" arrivalPos="196.00" arrivalSpeed="16.26" duration="155.00" routeLength="1195.53" waitingTime="29.00" waitingCount="3" stopTime="0.00" timeLoss="80.80" rerouteNo="3" devices="tripinfo_30" vType="Cartype" speedFactor="1.18" vaporized=""/>
    <tripinfo id="3" depart="5.00" departLane="2WO1_0" departPos="5.10" departSpeed="0.00" departDelay="0.00" arrival="206.00" arrivalLane="3WO4_0" arrivalPos="196.00" arrivalSpeed="14.69" duration="201.00" routeLength="1486.57" waitingTime="45.00" waitingCount="3" stopTime="0.00" timeLoss="100.40" rerouteNo="4" devices="tripinfo_3" vType="Cartype" speedFactor="1.08" vaporized=""/>
    <tripinfo id="36" depart="38.00" departLane="2NS1_0" departPos="5.10" departSpeed="0.00" departDelay="6.00" arrival="207.00" arrivalLane="2WO4_0" arrivalPos="196.00" arrivalSpeed="13.36" duration="169.00" routeLength="1184.15" waitingTime="35.00" waitingCount="2" stopTime="0.00" timeLoss="78.59" rerouteNo="3" devices="tripinfo_36" vType="Cartype" speedFactor="0.97" vaporized=""/>
    <tripinfo id="48" depart="69.00" departLane="2NS1_0" departPos="5.10" departSpeed="0.00" departDelay="29.00" arrival="208.00" arrivalLane="1OW4_0" arrivalPos="196.00" arrivalSpeed="11.82" duration="139.00" routeLength="886.92" waitingTime="29.00" waitingCount="2" stopTime="0.00" timeLoss="64.88" rerouteNo="2" devices="tripinfo_48" vType="Cartype" speedFactor="0.88" vaporized=""/>
    <tripinfo id="88" depart="92.00" departLane="2WO1_0" departPos="5.10" departSpeed="0.00" departDelay="23.00" arrival="210.00" arrivalLane="1NS4_0" arrivalPos="196.00" arrivalSpeed="13.81" duration="118.00" routeLength="886.92" waitingTime="15.00" waitingCount="2" stopTime="0.00" timeLoss="53.48" rerouteNo="2" devices="tripinfo_88" vType="Cartype" speedFactor="1.01" vaporized=""/>
    <tripinfo id="39" depart="67.00" departLane="2SN1_0" departPos="5.10" departSpeed="0.00" departDelay="34.00" arrival="211.00" arrivalLane="3WO4_0" arrivalPos="196.00" arrivalSpeed="12.33" duration="144.00" routeLength="886.92" waitingTime="27.00" waitingCount="2" stopTime="0.00" timeLoss="71.32" rerouteNo="2" devices="tripinfo_39" vType="Cartype" speedFactor="0.90" vaporized=""/>
    <tripinfo id="90" depart="97.00" departLane="2WO1_0" departPos="5.10" departSpeed="0.00" departDelay="27.00" arrival="212.00" arrivalLane="1NS4_0" arrivalPos="196.00" arrivalSpeed="14.04" duration="115.00" routeLength="886.92" waitingTime="13.00" waitingCount="2" stopTime="0.00" timeLoss="51.03" rerouteNo="2" devices="tripinfo_90" vType="Cartype" speedFactor="1.02" vaporized=""/>
    <tripinfo id="98" depart="127.00" departLane="2OW1_0" departPos="5.10" departSpeed="0.00" departDelay="53.00" arrival="214.00" arrivalLane="3NS4_0" arrivalPos="196.00" arrivalSpeed="15.28" duration="87.00" routeLength="894.55" waitingTime="1.00" waitingCount="1" stopTime="0.00" timeLoss="28.14" rerouteNo="2" devices="tripinfo_98" vType="Cartype" speedFactor="1.12" vaporized=""/>
    <tripinfo id="59" depart="66.00" departLane="2WO1_0" departPos="5.10" departSpeed="0.00" departDelay="19.00" arrival="221.00" arrivalLane="2NS4_0" arrivalPos="196.00" arrivalSpeed="13.24" duration="155.00" routeLength="1176.52" waitingTime="16.00" waitingCount="3" stopTime="0.00" timeLoss="65.06" rerouteNo="3" devices="tripinfo_59" vType="Cartype" speedFactor="0.97" vaporized=""/>
    <tripinfo id="13" depart="16.00" departLane="2SN1_0" departPos="5.10" departSpeed="0.00" departDelay="0.00" arrival="222.00" arrivalLane="1WO4_0" arrivalPos="196.00" arrivalSpeed="15.30" duration="206.00" routeLength="1488.30" waitingTime="46.00" waitingCount="3" stopTime="0.00" timeLoss="110.11" rerouteNo="4" devices="tripinfo_13" vType="Cartype" speedFactor="1.12" vaporized=""/>
    <tripinfo id="20" depart="22.00" departLane="2NS1_0" departPos="5.10" departSpeed="0.00" departDelay="0.00" arrival="223.00" arrivalLane="1SN4_0" arrivalPos="196.00" arrivalSpeed="14.00" duration="201.00" routeLength="1479.23" waitingTime="29.00" waitingCount="3" stopTime="0.00" timeLoss="94.82" rerouteNo="4" devices="tripinfo_20" vType="Cartype" speedFactor="1.02" vaporized=""/>
    <tripinfo id="94" depart="107.00" departLane="2WO1_0" departPos="5.10" departSpeed="0.00" departDelay="35.00" arrival="225.00" arrivalLane="1SN4_0" arrivalPos="196.00" arrivalSpeed="15.13" duration="118.00" routeLength="894.55" waitingTime="14.00" waitingCount="2" stopTime="0.00" timeLoss="57.59" rerouteNo="2" devices="tripinfo_94" vType="Cartype" speedFactor="1.09" vaporized=""/>
    <tripinfo id="52" depart="59.00" departLane="2OW1_0" departPos="5.10" departSpeed="0.00" departDelay="18.00" arrival="226.00" arrivalLane="2NS4_0" arrivalPos="196.00" arrivalSpeed="13.83" duration="167.00" routeLength="1184.15" waitingTime="29.00" waitingCount="3" stopTime="0.00" timeLoss="80.83" rerouteNo="3" devices="tripinfo_52" vType="Cartype" speedFactor="1.02" vaporized=""/>
    <tripinfo id="46" depart="58.00" departLane="2NS1_0" departPos="5.10" departSpeed="0.00" departDelay="21.00" arrival="228.00" arrivalLane="2NS4_0" arrivalPos="196.00" arrivalSpeed="13.85" duration="170.00" routeLength="1196.97" waitingTime="34.00" waitingCount="3" stopTime="0.00" timeLoss="83.24" rerouteNo="3" devices="tripinfo_46" vType="Cartype" speedFactor="1.00" vaporized=""/>
    <tripinfo id="60" depart="70.00" departLane="2OW1_0" departPos="5.10" departSpeed="0.00" departDelay="23.00" arrival="228.00" arrivalLane="2SN4_0" arrivalPos="196.00" arrivalSpeed="14.87" duration="158.00" routeLength="1187.61" waitingTime="20.00" waitingCount="3" stopTime="0.00" timeLoss="78.25" rerouteNo="3" devices="tripinfo_60" vType="Cartype" speedFactor="1.08" vaporized=""/>
    <tripinfo id="47" depart="64.00" departLane="2NS1_0" departPos="5.10" departSpeed="0.00" departDelay="26.00" arrival="234.00" arrivalLane="2NS4_0" arrivalPos="196.00" arrivalSpeed="12.18" duration="170.00" routeLength="1196.97" waitingTime="28.00" waitingCount="2" stopTime="0.00" timeLoss="74.31" rerouteNo="3" devices="tripinfo_47" vType="Cartype" speedFactor="0.90" vaporized=""/>
    <tripinfo id="123" depart="170.00" departLane="2SN1_0" departPos="5.10" departSpeed="0.00" departDelay="72.00" arrival="238.00" arrivalLane="3OW3_0" arrivalPos="92.00" arrivalSpeed="14.10" duration="68.00" routeLength="489.86" waitingTime="7.00" waitingCount="1" stopTime="0.00" timeLoss="31.64" rerouteNo="1" devices="tripinfo_123" vType="Cartype" speedFactor="1.02" vaporized=""/>
    <tripinfo id="125" depart="175.00" departLane="2SN1_0" departPos="5.10" departSpeed="0.00" departDelay="76.00" arrival="239.00" arrivalLane="3OW3_0" arrivalPos="92.00" arrivalSpeed="14.66" duration="64.00" routeLength="489.86" waitingTime="5.00" waitingCount="1" stopTime="0.00" timeLoss="32.62" rerouteNo="1" devices="tripinfo_125" vType="Cartype" speedFactor="1.15" vaporized=""/>
    <tripinfo id="23" depart="31.00" departLane="2SN1_0" departPos="5.10" departSpeed="0.00" departDelay="7.00" arrival="241.00" arrivalLane="3SN4_0" arrivalPos="196.00" arrivalSpeed="12.19" duration="210.00" routeLength="1486.57" waitingTime="30.00" waitingCount="4" stopTime="0.00" timeLoss="88.17" rerouteNo="4" devices="tripinfo_23" vType="Cartype" speedFactor="0.89" vaporized=""/>
    <tripinfo id="93" depart="121.00" departLane="2NS1_0" departPos="5.10" departSpeed="0.00" departDelay="49.00" arrival="241.00" arrivalLane="1SN4_0" arrivalPos="196.00" arrivalSpeed="12.56" duration="120.00" routeLength="877.56" waitingTime="16.00" waitingCount="2" stopTime="0.00" timeLoss="49.07" rerouteNo="2" devices="tripinfo_93" vType="Cartype" speedFactor="0.92" vaporized=""/>
    <tripinfo id="64" depart="107.00" departLane="2SN1_0" departPos="5.10" departSpeed="0.00" departDelay="55.00" arrival="242.00" arrivalLane="3WO4_0" arrivalPos="196.00" arrivalSpeed="12.65" duration="135.00" routeLength="886.92" waitingTime="26.00" waitingCount="2" stopTime="0.00" timeLoss="65.42" rerouteNo="2" devices="tripinfo_64" vType="Cartype" speedFactor="0.94" vaporized=""/>
    <tripinfo id="56" depart="84.00" departLane="2NS1_0" departPos="5.10" departSpeed="0.00" departDelay="38.00" arrival="243.00" arrivalLane="2WO4_0" arrivalPos="196.00" arrivalSpeed="12.29" duration="159.00" routeLength="1184.15" waitingTime="20.00" waitingCount="2" stopTime="0.00" timeLoss="61.22" rerouteNo="3" devices="tripinfo_56" vType="Cartype" speedFactor="0.90" vaporized=""/>
    <tripinfo id="73" depart="117.00" departLane="2SN1_0" departPos="5.10" departSpeed="0.00" departDelay="60.00" arrival="243.00" arrivalLane="3WO4_0" arrivalPos="196.00" arrivalSpeed="13.67" duration="126.00" routeLength="886.92" waitingTime="21.00" waitingCount="2" stopTime="0.00" timeLoss="64.80" rerouteNo="2" devices="tripinfo_73" vType="Cartype" speedFactor="1.06" vaporized=""/>
    <tripinfo id="95" depart="112.00" departLane="2WO1_0" departPos="5.10" departSpeed="0.00" departDelay="40.00" arrival="243.00" arrivalLane="1NS4_0" arrivalPos="196.00" arrivalSpeed="14.36" duration="131.00" routeLength="886.92" waitingTime="23.00" waitingCount="2" stopTime="0.00" timeLoss="69.10" rerouteNo="2" devices="tripinfo_95" vType="Cartype" speedFactor="1.06" vaporized=""/>
    <tripinfo id="68" depart="91.00" departLane="2OW1_0" departPos="5.10" departSpeed="0.00" departDelay="38.00" arrival="252.00" arrivalLane="2SN4_0" arrivalPos="196.00" arrivalSpeed="14.27" duration="161.00" routeLength="1176.52" waitingTime="33.00" waitingCount="2" stopTime="0.00" timeLoss="77.74" rerouteNo="3" devices="tripinfo_68" vType="Cartype" speedFactor="1.04" vaporized=""/>
    <tripinfo id="31" depart="51.00" departLane="2SN1_0" departPos="5.10" departSpeed="0.00" departDelay="22.00" arrival="256.00" arrivalLane="1SN4_0" arrivalPos="196.00" arrivalSpeed="15.64" duration="205.00" routeLength="1486.86" waitingTime="37.00" waitingCount="4" stopTime="0.00" timeLoss="110.86" rerouteNo="4" devices="tripinfo_31" vType="Cartype" speedFactor="1.15" vaporized=""/>
    <tripinfo id="91" depart="102.00" departLane="2WO1_0" departPos="5.10" departSpeed="0.00" departDelay="32.00" arrival="256.00" arrivalLane="2SN4_0" arrivalPos="196.00" arrivalSpeed="12.23" duration="154.00" routeLength="1195.24" waitingTime="23.00" waitingCount="2" stopTime="0.00" timeLoss="56.50" rerouteNo="3" devices="tripinfo_91" vType="Cartype" speedFactor="0.89" vaporized=""/>
    <tripinfo id="45" depart="50.00" departLane="2WO1_0" departPos="5.10" departSpeed="0.00" departDelay="14.00" arrival="257.00" arrivalLane="3NS4_0" arrivalPos="196.00" arrivalSpeed="14.80" duration="207.00" routeLength="1488.30" waitingTime="43.00" waitingCount="3" stopTime="0.00" timeLoss="107.18" rerouteNo="4" devices="tripinfo_45" vType="Cartype" speedFactor="1.09" vaporized=""/>
    <tripinfo id="29" depart="45.00" departLane="2WO1_0" departPos="5.10" departSpeed="0.00" departDelay="19.00" arrival="258.00" arrivalLane="3SN4_0" arrivalPos="196.00" arrivalSpeed="12.56" duration="213.00" routeLength="1484.84" waitingTime="44.00" waitingCount="3" stopTime="0.00" timeLoss="95.85" rerouteNo="4" devices="tripinfo_29" vType="Cartype" speedFactor="0.93" vaporized=""/>
    <tripinfo id="33" depart="56.00" departLane="2SN1_0" departPos="5.10" departSpeed="0.00" departDelay="26.00" arrival="258.00" arrivalLane="1WO4_0" arrivalPos="196.00" arrivalSpeed="16.27" duration="202.00" routeLength="1488.30" waitingTime="37.00" waitingCount="3" stopTime="0.00" timeLoss="109.12" rerouteNo="4" devices="tripinfo_33" vType="Cartype" speedFactor="1.17" vaporized=""/>
    <tripinfo id="25" depart="36.00" departLane="2SN1_0" departPos="5.10" departSpeed="0.00" departDelay="11.00" arrival="259.00" arrivalLane="3WO4_0" arrivalPos="196.00" arrivalSpeed="11.99" duration="223.00" routeLength="1477.21" waitingTime="43.00" waitingCount="4" stopTime="0.00" timeLoss="98.19" rerouteNo="4" devices="tripinfo_25" vType="Cartype" speedFactor="0.87" vaporized=""/>
    <tripinfo id="112" depart="152.00" departLane="2OW1_0" departPos="5.10" departSpeed="0.00" departDelay="67.00" arrival="260.00" arrivalLane="3NS4_0" arrivalPos="196.00" arrivalSpeed="15.16" duration="108.00" routeLength="894.55" waitingTime="4.00" waitingCount="2" stopTime="0.00" timeLoss="47.95" rerouteNo="2" devices="tripinfo_112" vType="Cartype" speedFactor="1.10" vaporized=""/>
    <tripinfo id="82" depart="122.00" departLane="2SN1_0" departPos="5.10" departSpeed="0.00" departDelay="59.00" arrival="261.00" arrivalLane="2SN4_0" arrivalPos="196.00" arrivalSpeed="14.03" duration="139.00" routeLength="1196.97" waitingTime="15.00" waitingCount="3" stopTime="0.00" timeLoss="54.00" rerouteNo="3" devices="tripinfo_82" vType="Cartype" speedFactor="1.02" vaporized=""/>
    <tripinfo id="14" depart="20.00" departLane="2WO1_0" departPos="5.10" departSpeed="0.00" departDelay="4.00" arrival="262.00" arrivalLane="3OW4_0" arrivalPos="196.00" arrivalSpeed="13.70" duration="242.00" routeLength="1478.94" waitingTime="62.00" waitingCount="5" stopTime="0.00" timeLoss="132.40" rerouteNo="4" devices="tripinfo_14" vType="Cartype" speedFactor="0.99" vaporized=""/>
    <tripinfo id="18" depart="33.00" departLane="2OW1_0" departPos="5.10" departSpeed="0.00" departDelay="13.00" arrival="264.00" arrivalLane="3OW4_0" arrivalPos="196.00" arrivalSpeed="13.00" duration="231.00" routeLength="1486.57" waitingTime="46.00" waitingCount="5" stopTime="0.00" timeLoss="114.57" rerouteNo="4" devices="tripinfo_18" vType="Cartype" speedFactor="0.94" vaporized=""/>
    <tripinfo id="70" depart="112.00" departLane="2SN1_0" departPos="5.10" departSpeed="0.00" departDelay="56.00" arrival="270.00" arrivalLane="2WO4_0" arrivalPos="196.00" arrivalSpeed="13.93" duration="158.00" routeLength="1176.52" waitingTime="24.00" waitingCount="2" stopTime="0.00" timeLoss="72.61" rerouteNo="3" devices="tripinfo_70" vType="Cartype" speedFactor="1.02" vaporized=""/>
    <tripinfo id="63" depart="75.00" departLane="2OW1_0" departPos="5.10" departSpeed="0.00" departDelay="25.00" arrival="274.00" arrivalLane="1SN4_0" arrivalPos="196.00" arrivalSpeed="13.54" duration="199.00" routeLength="1477.21" waitingTime="37.00" waitingCount="3" stopTime="0.00" timeLoss="88.47" rerouteNo="4" devices="tripinfo_63" vType="Cartype" speedFactor="0.99" vaporized=""/>