<?xml version="1.0" encoding="UTF-8"?>

<!-- generated on 10/02/19 13:14:05 by Eclipse SUMO GUI Version 1.3.1
<configuration xmlns:xsi="http://www.w3.org/2001/XMLSchema-instance" xsi:noNamespaceSchemaLocation="http://sumo.dlr.de/xsd/sumoConfiguration.xsd">

    <input>
        <net-file value="data/Cross1.net.xml"/>
        <route-files value="data/Cross1.rou.xml"/>
    </input>

    <output>
        <tripinfo-output value="tripinfo.xml"/>
    </output>

    <traci_server>
        <remote-port value="32287"/>
    </traci_server>

</configuration>
-->

<tripinfos xmlns:xsi="http://www.w3.org/2001/XMLSchema-instance" xsi:noNamespaceSchemaLocation="http://sumo.dlr.de/xsd/tripinfo_file.xsd">
    <tripinfo id="carflow.0" depart="0.00" departLane="NS1_0" departPos="5.10" departSpeed="0.00" departDelay="0.00" arrival="16.00" arrivalLane="NS2_0" arrivalPos="62.80" arrivalSpeed="14.25" duration="16.00" routeLength="134.90" waitingTime="0.00" waitingCount="0" stopTime="0.00" timeLoss="6.79" rerouteNo="0" devices="tripinfo_carflow.0 routing_carflow.0" vType="car" speedFactor="1.06" vaporized=""/>
    <tripinfo id="carflow2.0" depart="0.00" departLane="SN1_0" departPos="5.10" departSpeed="0.00" departDelay="0.00" arrival="19.00" arrivalLane="SN2_0" arrivalPos="62.80" arrivalSpeed="10.87" duration="19.00" routeLength="134.90" waitingTime="2.00" waitingCount="1" stopTime="0.00" timeLoss="8.51" rerouteNo="0" devices="tripinfo_carflow2.0 routing_carflow2.0" vType="car" speedFactor="0.94" vaporized=""/>
    <tripinfo id="carflow3.0" depart="0.00" departLane="WO1_0" departPos="5.10" departSpeed="0.00" departDelay="0.00" arrival="22.00" arrivalLane="WO2_0" arrivalPos="62.80" arrivalSpeed="11.64" duration="22.00" routeLength="134.90" waitingTime="1.00" waitingCount="1" stopTime="0.00" timeLoss="11.84" rerouteNo="0" devices="tripinfo_carflow3.0 routing_carflow3.0" vType="car" speedFactor="1.01" vaporized=""/>
    <tripinfo id="carflow4.0" depart="0.00" departLane="OW1_0" departPos="5.10" departSpeed="0.00" departDelay="0.00" arrival="24.00" arrivalLane="OW2_0" arrivalPos="62.80" arrivalSpeed="14.60" duration="24.00" routeLength="134.90" waitingTime="4.00" waitingCount="2" stopTime="0.00" timeLoss="14.39" rerouteNo="0" devices="tripinfo_carflow4.0 routing_carflow4.0" vType="car" speedFactor="1.08" vaporized=""/>
    <tripinfo id="carflow2.1" depart="3.00" departLane="SN1_0" departPos="5.10" departSpeed="0.00" departDelay="2.00" arrival="28.00" arrivalLane="SN2_0" arrivalPos="62.80" arrivalSpeed="9.93" duration="25.00" routeLength="134.90" waitingTime="0.00" waitingCount="0" stopTime="0.00" timeLoss="12.66" rerouteNo="0" devices="tripinfo_carflow2.1 routing_carflow2.1" vType="car" speedFactor="0.83" vaporized=""/>
    <tripinfo id="carflow3.1" depart="3.00" departLane="WO1_0" departPos="5.10" departSpeed="0.00" departDelay="2.00" arrival="31.00" arrivalLane="WO2_0" arrivalPos="62.80" arrivalSpeed="12.88" duration="28.00" routeLength="134.90" waitingTime="2.00" waitingCount="2" stopTime="0.00" timeLoss="18.02" rerouteNo="0" devices="tripinfo_carflow3.1 routing_carflow3.1" vType="car" speedFactor="1.05" vaporized=""/>
    <tripinfo id="carflow.1" depart="3.00" departLane="NS1_0" departPos="5.10" departSpeed="0.00" departDelay="2.00" arrival="34.00" arrivalLane="NS2_0" arrivalPos="62.80" arrivalSpeed="10.95" duration="31.00" routeLength="134.90" waitingTime="4.00" waitingCount="2" stopTime="0.00" timeLoss="21.45" rerouteNo="0" devices="tripinfo_carflow.1 routing_carflow.1" vType="car" speedFactor="1.03" vaporized=""/>
    <tripinfo id="carflow4.1" depart="3.00" departLane="OW1_0" departPos="5.10" departSpeed="0.00" departDelay="2.00" arrival="38.00" arrivalLane="OW2_0" arrivalPos="62.80" arrivalSpeed="10.09" duration="35.00" routeLength="134.90" waitingTime="4.00" waitingCount="3" stopTime="0.00" timeLoss="23.37" rerouteNo="0" devices="tripinfo_carflow4.1 routing_carflow4.1" vType="car" speedFactor="0.89" vaporized=""/>
    <tripinfo id="carflow2.2" depart="6.00" departLane="SN1_0" departPos="5.10" departSpeed="0.00" departDelay="4.00" arrival="41.00" arrivalLane="SN2_0" arrivalPos="62.80" arrivalSpeed="10.18" duration="35.00" routeLength="134.90" waitingTime="3.00" waitingCount="3" stopTime="0.00" timeLoss="23.32" rerouteNo="0" devices="tripinfo_carflow2.2 routing_carflow2.2" vType="car" speedFactor="0.86" vaporized=""/>
    <tripinfo id="carflow3.2" depart="6.00" departLane="WO1_0" departPos="5.10" departSpeed="0.00" departDelay="4.00" arrival="44.00" arrivalLane="WO2_0" arrivalPos="62.80" arrivalSpeed="12.13" duration="38.00" routeLength="134.90" waitingTime="2.00" waitingCount="2" stopTime="0.00" timeLoss="28.75" rerouteNo="0" devices="tripinfo_carflow3.2 routing_carflow3.2" vType="car" speedFactor="1.09" vaporized=""/>
    <tripinfo id="carflow.2" depart="8.00" departLane="NS1_0" departPos="5.10" departSpeed="0.00" departDelay="6.00" arrival="46.00" arrivalLane="NS2_0" arrivalPos="62.80" arrivalSpeed="12.93" duration="38.00" routeLength="134.90" waitingTime="1.00" waitingCount="1" stopTime="0.00" timeLoss="26.99" rerouteNo="0" devices="tripinfo_carflow.2 routing_carflow.2" vType="car" speedFactor="0.94" vaporized=""/>
    <tripinfo id="carflow4.2" depart="6.00" departLane="OW1_0" departPos="5.10" departSpeed="0.00" departDelay="4.00" arrival="47.00" arrivalLane="OW2_0" arrivalPos="62.80" arrivalSpeed="14.11" duration="41.00" routeLength="134.90" waitingTime="3.00" waitingCount="3" stopTime="0.00" timeLoss="31.50" rerouteNo="0" devices="tripinfo_carflow4.2 routing_carflow4.2" vType="car" speedFactor="1.03" vaporized=""/>
    <tripinfo id="carflow2.3" depart="8.00" departLane="SN1_0" departPos="5.10" departSpeed="0.00" departDelay="5.00" arrival="50.00" arrivalLane="SN2_0" arrivalPos="62.80" arrivalSpeed="15.00" duration="42.00" routeLength="134.90" waitingTime="4.00" waitingCount="4" stopTime="0.00" timeLoss="32.41" rerouteNo="0" devices="tripinfo_carflow2.3 routing_carflow2.3" vType="car" speedFactor="1.12" vaporized=""/>
    <tripinfo id="carflow3.3" depart="8.00" departLane="WO1_0" departPos="5.10" departSpeed="0.00" departDelay="5.00" arrival="52.00" arrivalLane="WO2_0" arrivalPos="62.80" arrivalSpeed="13.30" duration="44.00" routeLength="134.90" waitingTime="4.00" waitingCount="4" stopTime="0.00" timeLoss="33.80" rerouteNo="0" devices="tripinfo_carflow3.3 routing_carflow3.3" vType="car" speedFactor="0.99" vaporized=""/>
    <tripinfo id="carflow.3" depart="11.00" departLane="NS1_0" departPos="5.10" departSpeed="0.00" departDelay="8.00" arrival="57.00" arrivalLane="NS2_0" arrivalPos="62.80" arrivalSpeed="11.82" duration="46.00" routeLength="134.90" waitingTime="3.00" waitingCount="3" stopTime="0.00" timeLoss="36.53" rerouteNo="0" devices="tripinfo_carflow.3 routing_carflow.3" vType="car" speedFactor="1.05" vaporized=""/>
    <tripinfo id="carflow4.3" depart="10.00" departLane="OW1_0" departPos="5.10" departSpeed="0.00" departDelay="7.00" arrival="63.00" arrivalLane="OW2_0" arrivalPos="62.80" arrivalSpeed="11.09" duration="53.00" routeLength="134.90" waitingTime="3.00" waitingCount="3" stopTime="0.00" timeLoss="41.72" rerouteNo="0" devices="tripinfo_carflow4.3 routing_carflow4.3" vType="car" speedFactor="0.93" vaporized=""/>
    <tripinfo id="carflow2.4" depart="12.00" departLane="SN1_0" departPos="5.10" departSpeed="0.00" departDelay="8.00" arrival="65.00" arrivalLane="SN2_0" arrivalPos="62.80" arrivalSpeed="12.62" duration="53.00" routeLength="134.90" waitingTime="6.00" waitingCount="3" stopTime="0.00" timeLoss="41.93" rerouteNo="0" devices="tripinfo_carflow2.4 routing_carflow2.4" vType="car" speedFactor="0.94" vaporized=""/>
    <tripinfo id="carflow3.4" depart="11.00" departLane="WO1_0" departPos="5.10" departSpeed="0.00" departDelay="7.00" arrival="69.00" arrivalLane="WO2_0" arrivalPos="62.80" arrivalSpeed="11.77" duration="58.00" routeLength="134.90" waitingTime="5.00" waitingCount="3" stopTime="0.00" timeLoss="46.74" rerouteNo="0" devices="tripinfo_carflow3.4 routing_carflow3.4" vType="car" speedFactor="0.94" vaporized=""/>
    <tripinfo id="carflow.4" depart="14.00" departLane="NS1_0" departPos="5.10" departSpeed="0.00" departDelay="10.00" arrival="70.00" arrivalLane="NS2_0" arrivalPos="62.80" arrivalSpeed="10.80" duration="56.00" routeLength="134.90" waitingTime="8.00" waitingCount="8" stopTime="0.00" timeLoss="44.18" rerouteNo="0" devices="tripinfo_carflow.4 routing_carflow.4" vType="car" speedFactor="0.88" vaporized=""/>
    <tripinfo id="carflow4.4" depart="14.00" departLane="OW1_0" departPos="5.10" departSpeed="0.00" departDelay="10.00" arrival="71.00" arrivalLane="OW2_0" arrivalPos="62.80" arrivalSpeed="14.60" duration="57.00" routeLength="134.90" waitingTime="7.00" waitingCount="7" stopTime="0.00" timeLoss="48.43" rerouteNo="0" devices="tripinfo_carflow4.4 routing_carflow4.4" vType="car" speedFactor="1.16" vaporized=""/>
    <tripinfo id="carflow3.5" depart="14.00" departLane="WO1_0" departPos="5.10" departSpeed="0.00" departDelay="9.00" arrival="75.00" arrivalLane="WO2_0" arrivalPos="62.80" arrivalSpeed="11.96" duration="61.00" routeLength="134.90" waitingTime="1.00" waitingCount="1" stopTime="0.00" timeLoss="50.55" rerouteNo="0" devices="tripinfo_carflow3.5 routing_carflow3.5" vType="car" speedFactor="0.98" vaporized=""/>
    <tripinfo id="carflow4.5" depart="17.00" departLane="OW1_0" departPos="5.10" departSpeed="0.00" departDelay="12.00" arrival="75.00" arrivalLane="OW2_0" arrivalPos="62.80" arrivalSpeed="11.17" duration="58.00" routeLength="134.90" waitingTime="3.00" waitingCount="2" stopTime="0.00" timeLoss="46.30" rerouteNo="0" devices="tripinfo_carflow4.5 routing_carflow4.5" vType="car" speedFactor="0.89" vaporized=""/>
    <tripinfo id="carflow.5" depart="17.00" departLane="NS1_0" departPos="5.10" departSpeed="0.00" departDelay="12.00" arrival="77.00" arrivalLane="NS2_0" arrivalPos="62.80" arrivalSpeed="13.56" duration="60.00" routeLength="134.90" waitingTime="4.00" waitingCount="2" stopTime="0.00" timeLoss="50.07" rerouteNo="0" devices="tripinfo_carflow.5 routing_carflow.5" vType="car" speedFactor="1.02" vaporized=""/>
    <tripinfo id="carflow2.5" depart="15.00" departLane="SN1_0" departPos="5.10" departSpeed="0.00" departDelay="10.00" arrival="78.00" arrivalLane="SN2_0" arrivalPos="62.80" arrivalSpeed="11.19" duration="63.00" routeLength="134.90" waitingTime="8.00" waitingCount="6" stopTime="0.00" timeLoss="52.81" rerouteNo="0" devices="tripinfo_carflow2.5 routing_carflow2.5" vType="car" speedFactor="1.01" vaporized=""/>
    <tripinfo id="carflow3.6" depart="18.00" departLane="WO1_0" departPos="5.10" departSpeed="0.00" departDelay="12.00" arrival="81.00" arrivalLane="WO2_0" arrivalPos="62.80" arrivalSpeed="10.37" duration="63.00" routeLength="134.90" waitingTime="3.00" waitingCount="3" stopTime="0.00" timeLoss="52.10" rerouteNo="0" devices="tripinfo_carflow3.6 routing_carflow3.6" vType="car" speedFactor="0.92" vaporized=""/>
    <tripinfo id="carflow4.6" depart="21.00" departLane="OW1_0" departPos="5.10" departSpeed="0.00" departDelay="15.00" arrival="83.00" arrivalLane="OW2_0" arrivalPos="62.80" arrivalSpeed="11.99" duration="62.00" routeLength="134.90" waitingTime="6.00" waitingCount="5" stopTime="0.00" timeLoss="51.42" rerouteNo="0" devices="tripinfo_carflow4.6 routing_carflow4.6" vType="car" speedFactor="0.95" vaporized=""/>
    <tripinfo id="carflow2.6" depart="19.00" departLane="SN1_0" departPos="5.10" departSpeed="0.00" departDelay="13.00" arrival="86.00" arrivalLane="SN2_0" arrivalPos="62.80" arrivalSpeed="10.22" duration="67.00" routeLength="134.90" waitingTime="6.00" waitingCount="4" stopTime="0.00" timeLoss="55.38" rerouteNo="0" devices="tripinfo_carflow2.6 routing_carflow2.6" vType="car" speedFactor="0.87" vaporized=""/>
    <tripinfo id="carflow.6" depart="21.00" departLane="NS1_0" departPos="5.10" departSpeed="0.00" departDelay="15.00" arrival="88.00" arrivalLane="NS2_0" arrivalPos="62.80" arrivalSpeed="9.31" duration="67.00" routeLength="134.90" waitingTime="5.00" waitingCount="4" stopTime="0.00" timeLoss="54.46" rerouteNo="0" devices="tripinfo_carflow.6 routing_carflow.6" vType="car" speedFactor="0.83" vaporized=""/>
    <tripinfo id="carflow4.7" depart="27.00" departLane="OW1_0" departPos="5.10" departSpeed="0.00" departDelay="20.00" arrival="89.00" arrivalLane="OW2_0" arrivalPos="62.80" arrivalSpeed="14.41" duration="62.00" routeLength="134.90" waitingTime="5.00" waitingCount="5" stopTime="0.00" timeLoss="53.51" rerouteNo="0" devices="tripinfo_carflow4.7 routing_carflow4.7" vType="car" speedFactor="1.15" vaporized=""/>
    <tripinfo id="carflow3.7" depart="24.00" departLane="WO1_0" departPos="5.10" departSpeed="0.00" departDelay="17.00" arrival="90.00" arrivalLane="WO2_0" arrivalPos="62.80" arrivalSpeed="13.63" duration="66.00" routeLength="134.90" waitingTime="4.00" waitingCount="4" stopTime="0.00" timeLoss="57.00" rerouteNo="0" devices="tripinfo_carflow3.7 routing_carflow3.7" vType="car" speedFactor="1.18" vaporized=""/>
    <tripinfo id="carflow.7" depart="26.00" departLane="NS1_0" departPos="5.10" departSpeed="0.00" departDelay="19.00" arrival="94.00" arrivalLane="NS2_0" arrivalPos="62.80" arrivalSpeed="14.02" duration="68.00" routeLength="134.90" waitingTime="10.00" waitingCount="9" stopTime="0.00" timeLoss="59.27" rerouteNo="0" devices="tripinfo_carflow.7 routing_carflow.7" vType="car" speedFactor="1.13" vaporized=""/>
    <tripinfo id="carflow2.7" depart="23.00" departLane="SN1_0" departPos="5.10" departSpeed="0.00" departDelay="16.00" arrival="96.00" arrivalLane="SN2_0" arrivalPos="62.80" arrivalSpeed="10.40" duration="73.00" routeLength="134.90" waitingTime="7.00" waitingCount="5" stopTime="0.00" timeLoss="62.10" rerouteNo="0" devices="tripinfo_carflow2.7 routing_carflow2.7" vType="car" speedFactor="0.93" vaporized=""/>
    <tripinfo id="carflow4.8" depart="33.00" departLane="OW1_0" departPos="5.10" departSpeed="0.00" departDelay="25.00" arrival="99.00" arrivalLane="OW2_0" arrivalPos="62.80" arrivalSpeed="11.08" duration="66.00" routeLength="134.90" waitingTime="5.00" waitingCount="4" stopTime="0.00" timeLoss="56.43" rerouteNo="0" devices="tripinfo_carflow4.8 routing_carflow4.8" vType="car" speedFactor="1.02" vaporized=""/>
    <tripinfo id="carflow3.8" depart="28.00" departLane="WO1_0" departPos="5.10" departSpeed="0.00" departDelay="20.00" arrival="101.00" arrivalLane="WO2_0" arrivalPos="62.80" arrivalSpeed="11.27" duration="73.00" routeLength="134.90" waitingTime="8.00" waitingCount="6" stopTime="0.00" timeLoss="62.78" rerouteNo="0" devices="tripinfo_carflow3.8 routing_carflow3.8" vType="car" speedFactor="0.99" vaporized=""/>
    <tripinfo id="carflow2.8" depart="30.00" departLane="SN1_0" departPos="5.10" departSpeed="0.00" departDelay="22.00" arrival="103.00" arrivalLane="SN2_0" arrivalPos="62.80" arrivalSpeed="16.09" duration="73.00" routeLength="134.90" waitingTime="8.00" waitingCount="7" stopTime="0.00" timeLoss="64.46" rerouteNo="0" devices="tripinfo_carflow2.8 routing_carflow2.8" vType="car" speedFactor="1.17" vaporized=""/>
    <tripinfo id="carflow.8" depart="30.00" departLane="NS1_0" departPos="5.10" departSpeed="0.00" departDelay="22.00" arrival="105.00" arrivalLane="NS2_0" arrivalPos="62.80" arrivalSpeed="11.34" duration="75.00" routeLength="134.90" waitingTime="10.00" waitingCount="9" stopTime="0.00" timeLoss="65.25" rerouteNo="0" devices="tripinfo_carflow.8 routing_carflow.8" vType="car" speedFactor="1.01" vaporized=""/>
    <tripinfo id="carflow3.9" depart="34.00" departLane="WO1_0" departPos="5.10" departSpeed="0.00" departDelay="25.00" arrival="109.00" arrivalLane="WO2_0" arrivalPos="62.80" arrivalSpeed="13.03" duration="75.00" routeLength="134.90" waitingTime="8.00" waitingCount="5" stopTime="0.00" timeLoss="66.06" rerouteNo="0" devices="tripinfo_carflow3.9 routing_carflow3.9" vType="car" speedFactor="1.10" vaporized=""/>
    <tripinfo id="carflow4.9" depart="40.00" departLane="OW1_0" departPos="5.10" departSpeed="0.00" departDelay="31.00" arrival="109.00" arrivalLane="OW2_0" arrivalPos="62.80" arrivalSpeed="12.26" duration="69.00" routeLength="134.90" waitingTime="4.00" waitingCount="4" stopTime="0.00" timeLoss="57.45" rerouteNo="0" devices="tripinfo_carflow4.9 routing_carflow4.9" vType="car" speedFactor="0.90" vaporized=""/>
    <tripinfo id="carflow.9" depart="37.00" departLane="NS1_0" departPos="5.10" departSpeed="0.00" departDelay="28.00" arrival="112.00" arrivalLane="NS2_0" arrivalPos="62.80" arrivalSpeed="11.74" duration="75.00" routeLength="134.90" waitingTime="6.00" waitingCount="5" stopTime="0.00" timeLoss="64.44" rerouteNo="0" devices="tripinfo_carflow.9 routing_carflow.9" vType="car" speedFactor="0.97" vaporized=""/>
    <tripinfo id="carflow2.9" depart="37.00" departLane="SN1_0" departPos="5.10" departSpeed="0.00" departDelay="28.00" arrival="115.00" arrivalLane="SN2_0" arrivalPos="62.80" arrivalSpeed="13.75" duration="78.00" routeLength="134.90" waitingTime="8.00" waitingCount="6" stopTime="0.00" timeLoss="69.18" rerouteNo="0" devices="tripinfo_carflow2.9 routing_carflow2.9" vType="car" speedFactor="1.18" vaporized=""/>
    <tripinfo id="carflow.10" depart="49.00" departLane="NS1_0" departPos="5.10" departSpeed="0.00" departDelay="39.00" arrival="115.00" arrivalLane="NS2_0" arrivalPos="62.80" arrivalSpeed="14.17" duration="66.00" routeLength="134.90" waitingTime="6.00" waitingCount="6" stopTime="0.00" timeLoss="55.60" rerouteNo="0" devices="tripinfo_carflow.10 routing_carflow.10" vType="car" speedFactor="1.03" vaporized=""/>
    <tripinfo id="carflow3.10" depart="45.00" departLane="WO1_0" departPos="5.10" departSpeed="0.00" departDelay="35.00" arrival="119.00" arrivalLane="WO2_0" arrivalPos="62.80" arrivalSpeed="12.37" duration="74.00" routeLength="134.90" waitingTime="6.00" waitingCount="5" stopTime="0.00" timeLoss="64.44" rerouteNo="0" devices="tripinfo_carflow3.10 routing_carflow3.10" vType="car" speedFactor="1.09" vaporized=""/>
    <tripinfo id="carflow4.10" depart="50.00" departLane="OW1_0" departPos="5.10" departSpeed="0.00" departDelay="40.00" arrival="121.00" arrivalLane="OW2_0" arrivalPos="62.80" arrivalSpeed="12.33" duration="71.00" routeLength="134.90" waitingTime="7.00" waitingCount="7" stopTime="0.00" timeLoss="61.00" rerouteNo="0" devices="tripinfo_carflow4.10 routing_carflow4.10" vType="car" speedFactor="1.04" vaporized=""/>
    <tripinfo id="carflow.11" depart="60.00" departLane="NS1_0" departPos="5.10" departSpeed="0.00" departDelay="49.00" arrival="124.00" arrivalLane="NS2_0" arrivalPos="62.80" arrivalSpeed="12.73" duration="64.00" routeLength="134.90" waitingTime="4.00" waitingCount="4" stopTime="0.00" timeLoss="54.49" rerouteNo="0" devices="tripinfo_carflow.11 routing_carflow.11" vType="car" speedFactor="1.04" vaporized=""/>
    <tripinfo id="carflow2.10" depart="42.00" departLane="SN1_0" departPos="5.10" departSpeed="0.00" departDelay="32.00" arrival="126.00" arrivalLane="SN2_0" arrivalPos="62.80" arrivalSpeed="11.61" duration="84.00" routeLength="134.90" waitingTime="10.00" waitingCount="9" stopTime="0.00" timeLoss="73.30" rerouteNo="0" devices="tripinfo_carflow2.10 routing_carflow2.10" vType="car" speedFactor="0.96" vaporized=""/>
    <tripinfo id="carflow3.11" depart="61.00" departLane="WO1_0" departPos="5.10" departSpeed="0.00" departDelay="50.00" arrival="126.00" arrivalLane="WO2_0" arrivalPos="62.80" arrivalSpeed="11.63" duration="65.00" routeLength="134.90" waitingTime="3.00" waitingCount="3" stopTime="0.00" timeLoss="55.15" rerouteNo="0" devices="tripinfo_carflow3.11 routing_carflow3.11" vType="car" speedFactor="1.00" vaporized=""/>
    <tripinfo id="carflow4.11" depart="58.00" departLane="OW1_0" departPos="5.10" departSpeed="0.00" departDelay="47.00" arrival="130.00" arrivalLane="OW2_0" arrivalPos="62.80" arrivalSpeed="9.08" duration="72.00" routeLength="134.90" waitingTime="7.00" waitingCount="6" stopTime="0.00" timeLoss="60.58" rerouteNo="0" devices="tripinfo_carflow4.11 routing_carflow4.11" vType="car" speedFactor="0.90" vaporized=""/>
    <tripinfo id="carflow3.12" depart="69.00" departLane="WO1_0" departPos="5.10" departSpeed="0.00" departDelay="57.00" arrival="132.00" arrivalLane="WO2_0" arrivalPos="62.80" arrivalSpeed="9.82" duration="63.00" routeLength="134.90" waitingTime="4.00" waitingCount="3" stopTime="0.00" timeLoss="50.84" rerouteNo="0" devices="tripinfo_carflow3.12 routing_carflow3.12" vType="car" speedFactor="0.85" vaporized=""/>
    <tripinfo id="carflow2.11" depart="56.00" departLane="SN1_0" departPos="5.10" departSpeed="0.00" departDelay="45.00" arrival="134.00" arrivalLane="SN2_0" arrivalPos="62.80" arrivalSpeed="15.08" duration="78.00" routeLength="134.90" waitingTime="5.00" waitingCount="4" stopTime="0.00" timeLoss="68.84" rerouteNo="0" devices="tripinfo_carflow2.11 routing_carflow2.11" vType="car" speedFactor="1.09" vaporized=""/>
    <tripinfo id="carflow.12" depart="71.00" departLane="NS1_0" departPos="5.10" departSpeed="0.00" departDelay="59.00" arrival="134.00" arrivalLane="NS2_0" arrivalPos="62.80" arrivalSpeed="10.94" duration="63.00" routeLength="134.90" waitingTime="5.00" waitingCount="5" stopTime="0.00" timeLoss="51.46" rerouteNo="0" devices="tripinfo_carflow.12 routing_carflow.12" vType="car" speedFactor="0.88" vaporized=""/>
    <tripinfo id="carflow4.12" depart="74.00" departLane="OW1_0" departPos="5.10" departSpeed="0.00" departDelay="62.00" arrival="138.00" arrivalLane="OW2_0" arrivalPos="62.80" arrivalSpeed="12.82" duration="64.00" routeLength="134.90" waitingTime="5.00" waitingCount="4" stopTime="0.00" timeLoss="54.94" rerouteNo="0" devices="tripinfo_carflow4.12 routing_carflow4.12" vType="car" speedFactor="1.17" vaporized=""/>
    <tripinfo id="carflow3.13" depart="79.00" departLane="WO1_0" departPos="5.10" departSpeed="0.00" departDelay="66.00" arrival="140.00" arrivalLane="WO2_0" arrivalPos="62.80" arrivalSpeed="12.36" duration="61.00" routeLength="134.90" waitingTime="1.00" waitingCount="1" stopTime="0.00" timeLoss="50.59" rerouteNo="0" devices="tripinfo_carflow3.13 routing_carflow3.13" vType="car" speedFactor="1.00" vaporized=""/>
    <tripinfo id="carflow.13" depart="82.00" departLane="NS1_0" departPos="5.10" departSpeed="0.00" departDelay="69.00" arrival="143.00" arrivalLane="NS2_0" arrivalPos="62.80" arrivalSpeed="13.04" duration="61.00" routeLength="134.90" waitingTime="4.00" waitingCount="4" stopTime="0.00" timeLoss="50.54" rerouteNo="0" devices="tripinfo_carflow.13 routing_carflow.13" vType="car" speedFactor="1.02" vaporized=""/>
    <tripinfo id="carflow2.12" depart="65.00" departLane="SN1_0" departPos="5.10" departSpeed="0.00" departDelay="53.00" arrival="144.00" arrivalLane="SN2_0" arrivalPos="62.80" arrivalSpeed="10.31" duration="79.00" routeLength="134.90" waitingTime="8.00" waitingCount="7" stopTime="0.00" timeLoss="66.88" rerouteNo="0" devices="tripinfo_carflow2.12 routing_carflow2.12" vType="car" speedFactor="0.85" vaporized=""/>
    <tripinfo id="carflow3.14" depart="88.00" departLane="WO1_0" departPos="5.10" departSpeed="0.00" departDelay="74.00" arrival="148.00" arrivalLane="WO2_0" arrivalPos="62.80" arrivalSpeed="11.91" duration="60.00" routeLength="134.90" waitingTime="1.00" waitingCount="1" stopTime="0.00" timeLoss="49.78" rerouteNo="0" devices="tripinfo_carflow3.14 routing_carflow3.14" vType="car" speedFactor="1.02" vaporized=""/>
    <tripinfo id="carflow4.13" depart="87.00" departLane="OW1_0" departPos="5.10" departSpeed="0.00" departDelay="74.00" arrival="149.00" arrivalLane="OW2_0" arrivalPos="62.80" arrivalSpeed="10.37" duration="62.00" routeLength="134.90" waitingTime="2.00" waitingCount="2" stopTime="0.00" timeLoss="51.83" rerouteNo="0" devices="tripinfo_carflow4.13 routing_carflow4.13" vType="car" speedFactor="1.00" vaporized=""/>
    <tripinfo id="carflow.14" depart="92.00" departLane="NS1_0" departPos="5.10" departSpeed="0.00" departDelay="78.00" arrival="153.00" arrivalLane="NS2_0" arrivalPos="62.80" arrivalSpeed="12.22" duration="61.00" routeLength="134.90" waitingTime="7.00" waitingCount="5" stopTime="0.00" timeLoss="50.01" rerouteNo="0" devices="tripinfo_carflow.14 routing_carflow.14" vType="car" speedFactor="0.90" vaporized=""/>
    <tripinfo id="carflow2.13" depart="85.00" departLane="SN1_0" departPos="5.10" departSpeed="0.00" departDelay="72.00" arrival="157.00" arrivalLane="SN2_0" arrivalPos="62.80" arrivalSpeed="12.01" duration="72.00" routeLength="134.90" waitingTime="5.00" waitingCount="4" stopTime="0.00" timeLoss="62.43" rerouteNo="0" devices="tripinfo_carflow2.13 routing_carflow2.13" vType="car" speedFactor="1.10" vaporized=""/>
    <tripinfo id="carflow3.15" depart="96.00" departLane="WO1_0" departPos="5.10" departSpeed="0.00" departDelay="81.00" arrival="157.00" arrivalLane="WO2_0" arrivalPos="62.80" arrivalSpeed="13.89" duration="61.00" routeLength="134.90" waitingTime="7.00" waitingCount="4" stopTime="0.00" timeLoss="50.48" rerouteNo="0" devices="tripinfo_carflow3.15 routing_carflow3.15" vType="car" speedFactor="1.02" vaporized=""/>
    <tripinfo id="carflow4.14" depart="92.00" departLane="OW1_0" departPos="5.10" departSpeed="0.00" departDelay="78.00" arrival="158.00" arrivalLane="OW2_0" arrivalPos="62.80" arrivalSpeed="12.49" duration="66.00" routeLength="134.90" waitingTime="3.00" waitingCount="3" stopTime="0.00" timeLoss="55.15" rerouteNo="0" devices="tripinfo_carflow4.14 routing_carflow4.14" vType="car" speedFactor="0.97" vaporized=""/>
    <tripinfo id="carflow2.14" depart="94.00" departLane="SN1_0" departPos="5.10" departSpeed="0.00" departDelay="80.00" arrival="160.00" arrivalLane="SN2_0" arrivalPos="62.80" arrivalSpeed="14.66" duration="66.00" routeLength="134.90" waitingTime="3.00" waitingCount="3" stopTime="0.00" timeLoss="57.09" rerouteNo="0" devices="tripinfo_carflow2.14 routing_carflow2.14" vType="car" speedFactor="1.14" vaporized=""/>
    <tripinfo id="carflow.15" depart="102.00" departLane="NS1_0" departPos="5.10" departSpeed="0.00" departDelay="87.00" arrival="161.00" arrivalLane="NS2_0" arrivalPos="62.80" arrivalSpeed="15.00" duration="59.00" routeLength="134.90" waitingTime="2.00" waitingCount="2" stopTime="0.00" timeLoss="49.87" rerouteNo="0" devices="tripinfo_carflow.15 routing_carflow.15" vType="car" speedFactor="1.08" vaporized=""/>
    <tripinfo id="carflow2.15" depart="102.00" departLane="SN1_0" departPos="5.10" departSpeed="0.00" departDelay="87.00" arrival="164.00" arrivalLane="SN2_0" arrivalPos="62.80" arrivalSpeed="12.05" duration="62.00" routeLength="134.90" waitingTime="5.00" waitingCount="5" stopTime="0.00" timeLoss="52.98" rerouteNo="0" devices="tripinfo_carflow2.15 routing_carflow2.15" vType="car" speedFactor="1.12" vaporized=""/>
    <tripinfo id="carflow3.16" depart="106.00" departLane="WO1_0" departPos="5.10" departSpeed="0.00" departDelay="90.00" arrival="167.00" arrivalLane="WO2_0" arrivalPos="62.80" arrivalSpeed="11.99" duration="61.00" routeLength="134.90" waitingTime="5.00" waitingCount="3" stopTime="0.00" timeLoss="49.86" rerouteNo="0" devices="tripinfo_carflow3.16 routing_carflow3.16" vType="car" speedFactor="0.91" vaporized=""/>
    <tripinfo id="carflow4.15" depart="100.00" departLane="OW1_0" departPos="5.10" departSpeed="0.00" departDelay="85.00" arrival="168.00" arrivalLane="OW2_0" arrivalPos="62.80" arrivalSpeed="11.42" duration="68.00" routeLength="134.90" waitingTime="5.00" waitingCount="5" stopTime="0.00" timeLoss="57.49" rerouteNo="0" devices="tripinfo_carflow4.15 routing_carflow4.15" vType="car" speedFactor="0.99" vaporized=""/>
    <tripinfo id="carflow2.16" depart="109.00" departLane="SN1_0" departPos="5.10" departSpeed="0.00" departDelay="93.00" arrival="170.00" arrivalLane="SN2_0" arrivalPos="62.80" arrivalSpeed="11.66" duration="61.00" routeLength="134.90" waitingTime="3.00" waitingCount="3" stopTime="0.00" timeLoss="49.45" rerouteNo="0" devices="tripinfo_carflow2.16 routing_carflow2.16" vType="car" speedFactor="0.88" vaporized=""/>
    <tripinfo id="carflow.16" depart="111.00" departLane="NS1_0" departPos="5.10" departSpeed="0.00" departDelay="95.00" arrival="172.00" arrivalLane="NS2_0" arrivalPos="62.80" arrivalSpeed="9.66" duration="61.00" routeLength="134.90" waitingTime="6.00" waitingCount="6" stopTime="0.00" timeLoss="50.52" rerouteNo="0" devices="tripinfo_carflow.16 routing_carflow.16" vType="car" speedFactor="0.94" vaporized=""/>
    <tripinfo id="carflow4.16" depart="110.00" departLane="OW1_0" departPos="5.10" departSpeed="0.00" departDelay="94.00" arrival="174.00" arrivalLane="OW2_0" arrivalPos="62.80" arrivalSpeed="10.95" duration="64.00" routeLength="134.90" waitingTime="8.00" waitingCount="7" stopTime="0.00" timeLoss="53.31" rerouteNo="0" devices="tripinfo_carflow4.16 routing_carflow4.16" vType="car" speedFactor="0.91" vaporized=""/>
    <tripinfo id="carflow3.17" depart="114.00" departLane="WO1_0" departPos="5.10" departSpeed="0.00" departDelay="97.00" arrival="174.00" arrivalLane="WO2_0" arrivalPos="62.80" arrivalSpeed="13.63" duration="60.00" routeLength="134.90" waitingTime="1.00" waitingCount="1" stopTime="0.00" timeLoss="50.16" rerouteNo="0" devices="tripinfo_carflow3.17 routing_carflow3.17" vType="car" speedFactor="1.02" vaporized=""/>
    <tripinfo id="carflow.17" depart="119.00" departLane="NS1_0" departPos="5.10" departSpeed="0.00" departDelay="102.00" arrival="178.00" arrivalLane="NS2_0" arrivalPos="62.80" arrivalSpeed="11.75" duration="59.00" routeLength="134.90" waitingTime="3.00" waitingCount="3" stopTime="0.00" timeLoss="49.33" rerouteNo="0" devices="tripinfo_carflow.17 routing_carflow.17" vType="car" speedFactor="1.04" vaporized=""/>