<?xml version="1.0" encoding="UTF-8"?>

<!-- generated on 01/21/20 21:28:49 by Eclipse SUMO Version 1.3.1
<configuration xmlns:xsi="http://www.w3.org/2001/XMLSchema-instance" xsi:noNamespaceSchemaLocation="http://sumo.dlr.de/xsd/sumoConfiguration.xsd">

    <input>
        <net-file value="Data/Cross_3_3.net.xml"/>
        <route-files value="Data/Cross12.rou.xml"/>
        <additional-files value="Data/rerouter.xml,Data/trafficLight.add.xml"/>
    </input>

    <output>
        <tripinfo-output value="tripinfo.xml"/>
    </output>

    <report>
        <log value="logfile.txt"/>
    </report>

    <traci_server>
        <remote-port value="53822"/>
    </traci_server>

</configuration>
-->

<tripinfos xmlns:xsi="http://www.w3.org/2001/XMLSchema-instance" xsi:noNamespaceSchemaLocation="http://sumo.dlr.de/xsd/tripinfo_file.xsd">
    <tripinfo id="13" depart="18.00" departLane="2SN1_0" departPos="5.10" departSpeed="0.00" departDelay="11.00" arrival="683.00" arrivalLane="3OW4_0" arrivalPos="196.00" arrivalSpeed="15.48" duration="665.00" routeLength="875.19" waitingTime="589.00" waitingCount="2" stopTime="0.00" timeLoss="608.32" rerouteNo="2" devices="tripinfo_13" vType="Cartype" speedFactor="1.12" vaporized=""/>
    <tripinfo id="6" depart="9.00" departLane="2OW1_0" departPos="5.10" departSpeed="0.00" departDelay="5.00" arrival="688.00" arrivalLane="3NS4_0" arrivalPos="196.00" arrivalSpeed="14.48" duration="679.00" routeLength="854.10" waitingTime="602.00" waitingCount="2" stopTime="0.00" timeLoss="620.90" rerouteNo="2" devices="tripinfo_6" vType="Cartype" speedFactor="1.05" vaporized=""/>
    <tripinfo id="10" depart="11.00" departLane="2NS1_0" departPos="5.10" departSpeed="0.00" departDelay="5.00" arrival="689.00" arrivalLane="3SN4_0" arrivalPos="196.00" arrivalSpeed="14.91" duration="678.00" routeLength="873.46" waitingTime="598.00" waitingCount="2" stopTime="0.00" timeLoss="619.28" rerouteNo="2" devices="tripinfo_10" vType="Cartype" speedFactor="1.09" vaporized=""/>
    <tripinfo id="9" depart="6.00" departLane="2NS1_0" departPos="5.10" departSpeed="0.00" departDelay="0.00" arrival="692.00" arrivalLane="1WO4_0" arrivalPos="196.00" arrivalSpeed="11.75" duration="686.00" routeLength="854.10" waitingTime="602.00" waitingCount="2" stopTime="0.00" timeLoss="614.56" rerouteNo="2" devices="tripinfo_9" vType="Cartype" speedFactor="0.86" vaporized=""/>
    <tripinfo id="5" depart="4.00" departLane="2OW1_0" departPos="5.10" departSpeed="0.00" departDelay="0.00" arrival="696.00" arrivalLane="3SN4_0" arrivalPos="196.00" arrivalSpeed="11.18" duration="692.00" routeLength="854.10" waitingTime="602.00" waitingCount="2" stopTime="0.00" timeLoss="618.22" rerouteNo="2" devices="tripinfo_5" vType="Cartype" speedFactor="0.83" vaporized=""/>
    <tripinfo id="14" depart="15.00" departLane="2WO1_0" departPos="5.10" departSpeed="0.00" departDelay="6.00" arrival="702.00" arrivalLane="1OW4_0" arrivalPos="196.00" arrivalSpeed="13.66" duration="687.00" routeLength="873.46" waitingTime="597.00" waitingCount="2" stopTime="0.00" timeLoss="622.93" rerouteNo="2" devices="tripinfo_14" vType="Cartype" speedFactor="0.99" vaporized=""/>
    <tripinfo id="33" depart="49.00" departLane="2SN1_0" departPos="5.10" departSpeed="0.00" departDelay="23.00" arrival="987.00" arrivalLane="3OW4_0" arrivalPos="196.00" arrivalSpeed="16.20" duration="938.00" routeLength="875.19" waitingTime="859.00" waitingCount="3" stopTime="0.00" timeLoss="884.24" rerouteNo="2" devices="tripinfo_33" vType="Cartype" speedFactor="1.17" vaporized=""/>
    <tripinfo id="0" depart="0.00" departLane="2WO1_0" departPos="5.10" departSpeed="0.00" departDelay="0.00" arrival="998.00" arrivalLane="2WO4_0" arrivalPos="196.00" arrivalSpeed="14.70" duration="998.00" routeLength="1133.70" waitingTime="903.00" waitingCount="3" stopTime="0.00" timeLoss="921.78" rerouteNo="3" devices="tripinfo_0" vType="Cartype" speedFactor="1.06" vaporized=""/>
    <tripinfo id="17" depart="19.00" departLane="2OW1_0" departPos="5.10" departSpeed="0.00" departDelay="4.00" arrival="1000.00" arrivalLane="3NS4_0" arrivalPos="196.00" arrivalSpeed="13.04" duration="981.00" routeLength="854.10" waitingTime="895.00" waitingCount="3" stopTime="0.00" timeLoss="915.71" rerouteNo="2" devices="tripinfo_17" vType="Cartype" speedFactor="0.94" vaporized=""/>
    <tripinfo id="20" depart="20.00" departLane="2WO1_0" departPos="5.10" departSpeed="0.00" departDelay="2.00" arrival="1292.00" arrivalLane="3OW4_0" arrivalPos="196.00" arrivalSpeed="14.08" duration="1272.00" routeLength="854.10" waitingTime="1184.00" waitingCount="4" stopTime="0.00" timeLoss="1211.85" rerouteNo="2" devices="tripinfo_20" vType="Cartype" speedFactor="1.02" vaporized=""/>
    <tripinfo id="36" depart="34.00" departLane="2OW1_0" departPos="5.10" departSpeed="0.00" departDelay="8.00" arrival="1301.00" arrivalLane="3NS4_0" arrivalPos="196.00" arrivalSpeed="13.28" duration="1267.00" routeLength="854.10" waitingTime="1182.00" waitingCount="4" stopTime="0.00" timeLoss="1207.08" rerouteNo="2" devices="tripinfo_36" vType="Cartype" speedFactor="0.97" vaporized=""/>
    <tripinfo id="21" depart="25.00" departLane="2WO1_0" departPos="5.10" departSpeed="0.00" departDelay="7.00" arrival="1303.00" arrivalLane="1SN4_0" arrivalPos="196.00" arrivalSpeed="13.89" duration="1278.00" routeLength="854.10" waitingTime="1189.00" waitingCount="4" stopTime="0.00" timeLoss="1217.54" rerouteNo="2" devices="tripinfo_21" vType="Cartype" speedFactor="1.01" vaporized=""/>
    <tripinfo id="82" depart="90.00" departLane="2SN1_0" departPos="5.10" departSpeed="0.00" departDelay="25.00" arrival="1303.00" arrivalLane="3OW3_0" arrivalPos="92.00" arrivalSpeed="13.96" duration="1213.00" routeLength="470.50" waitingTime="1136.00" waitingCount="4" stopTime="0.00" timeLoss="1180.03" rerouteNo="1" devices="tripinfo_82" vType="Cartype" speedFactor="1.02" vaporized=""/>
    <tripinfo id="15" depart="23.00" departLane="2SN1_0" departPos="5.10" departSpeed="0.00" departDelay="12.00" arrival="1304.00" arrivalLane="3NS4_0" arrivalPos="196.00" arrivalSpeed="12.67" duration="1281.00" routeLength="854.10" waitingTime="1189.00" waitingCount="4" stopTime="0.00" timeLoss="1215.06" rerouteNo="2" devices="tripinfo_15" vType="Cartype" speedFactor="0.93" vaporized=""/>
    <tripinfo id="3" depart="5.00" departLane="2WO1_0" departPos="5.10" departSpeed="0.00" departDelay="2.00" arrival="1305.00" arrivalLane="2NS4_0" arrivalPos="196.00" arrivalSpeed="14.81" duration="1300.00" routeLength="1133.70" waitingTime="1199.00" waitingCount="4" stopTime="0.00" timeLoss="1225.03" rerouteNo="3" devices="tripinfo_3" vType="Cartype" speedFactor="1.08" vaporized=""/>
    <tripinfo id="35" depart="61.00" departLane="2WO1_0" departPos="5.10" departSpeed="0.00" departDelay="35.00" arrival="1311.00" arrivalLane="1OW4_0" arrivalPos="196.00" arrivalSpeed="13.78" duration="1250.00" routeLength="873.46" waitingTime="1153.00" waitingCount="4" stopTime="0.00" timeLoss="1187.45" rerouteNo="2" devices="tripinfo_35" vType="Cartype" speedFactor="1.02" vaporized=""/>
    <tripinfo id="65" depart="79.00" departLane="2NS1_0" departPos="5.10" departSpeed="0.00" departDelay="32.00" arrival="1311.00" arrivalLane="3SN4_0" arrivalPos="196.00" arrivalSpeed="12.07" duration="1232.00" routeLength="873.46" waitingTime="1124.00" waitingCount="4" stopTime="0.00" timeLoss="1160.40" rerouteNo="2" devices="tripinfo_65" vType="Cartype" speedFactor="0.88" vaporized=""/>
    <tripinfo id="12" depart="13.00" departLane="2SN1_0" departPos="5.10" departSpeed="0.00" departDelay="7.00" arrival="1315.00" arrivalLane="2SN4_0" arrivalPos="196.00" arrivalSpeed="14.43" duration="1302.00" routeLength="1133.70" waitingTime="1200.00" waitingCount="4" stopTime="0.00" timeLoss="1225.16" rerouteNo="3" devices="tripinfo_12" vType="Cartype" speedFactor="1.05" vaporized=""/>
    <tripinfo id="8" depart="14.00" departLane="2OW1_0" departPos="5.10" departSpeed="0.00" departDelay="9.00" arrival="1320.00" arrivalLane="2OW4_0" arrivalPos="196.00" arrivalSpeed="12.94" duration="1306.00" routeLength="1133.99" waitingTime="1199.00" waitingCount="4" stopTime="0.00" timeLoss="1219.56" rerouteNo="3" devices="tripinfo_8" vType="Cartype" speedFactor="0.94" vaporized=""/>
    <tripinfo id="11" depart="16.00" departLane="2NS1_0" departPos="5.10" departSpeed="0.00" departDelay="10.00" arrival="1613.00" arrivalLane="2WO4_0" arrivalPos="196.00" arrivalSpeed="14.22" duration="1597.00" routeLength="1133.70" waitingTime="1488.00" waitingCount="5" stopTime="0.00" timeLoss="1517.94" rerouteNo="3" devices="tripinfo_11" vType="Cartype" speedFactor="1.03" vaporized=""/>
    <tripinfo id="47" depart="44.00" departLane="2OW1_0" departPos="5.10" departSpeed="0.00" departDelay="8.00" arrival="1613.00" arrivalLane="3WO4_0" arrivalPos="196.00" arrivalSpeed="12.40" duration="1569.00" routeLength="854.10" waitingTime="1468.00" waitingCount="5" stopTime="0.00" timeLoss="1500.77" rerouteNo="2" devices="tripinfo_47" vType="Cartype" speedFactor="0.90" vaporized=""/>
    <tripinfo id="7" depart="8.00" departLane="2SN1_0" departPos="5.10" departSpeed="0.00" departDelay="3.00" arrival="1627.00" arrivalLane="2OW4_0" arrivalPos="196.00" arrivalSpeed="12.04" duration="1619.00" routeLength="2312.20" waitingTime="1404.00" waitingCount="5" stopTime="0.00" timeLoss="1431.01" rerouteNo="7" devices="tripinfo_7" vType="Cartype" speedFactor="0.89" vaporized=""/>
    <tripinfo id="4" depart="10.00" departLane="2WO1_0" departPos="5.10" departSpeed="0.00" departDelay="6.00" arrival="1628.00" arrivalLane="2WO4_0" arrivalPos="196.00" arrivalSpeed="14.28" duration="1618.00" routeLength="1712.26" waitingTime="1465.00" waitingCount="5" stopTime="0.00" timeLoss="1498.74" rerouteNo="5" devices="tripinfo_4" vType="Cartype" speedFactor="1.03" vaporized=""/>
    <tripinfo id="2" depart="3.00" departLane="2SN1_0" departPos="5.10" departSpeed="0.00" departDelay="0.00" arrival="1635.00" arrivalLane="3OW4_0" arrivalPos="196.00" arrivalSpeed="14.01" duration="1632.00" routeLength="2005.61" waitingTime="1462.00" waitingCount="5" stopTime="0.00" timeLoss="1489.65" rerouteNo="6" devices="tripinfo_2" vType="Cartype" speedFactor="1.01" vaporized=""/>
    <tripinfo id="51" depart="92.00" departLane="2WO1_0" departPos="5.10" departSpeed="0.00" departDelay="55.00" arrival="1915.00" arrivalLane="1SN4_0" arrivalPos="196.00" arrivalSpeed="15.93" duration="1823.00" routeLength="854.10" waitingTime="1717.00" waitingCount="6" stopTime="0.00" timeLoss="1771.05" rerouteNo="2" devices="tripinfo_51" vType="Cartype" speedFactor="1.17" vaporized=""/>
    <tripinfo id="67" depart="84.00" departLane="2NS1_0" departPos="5.10" departSpeed="0.00" departDelay="34.00" arrival="1915.00" arrivalLane="1WO4_0" arrivalPos="196.00" arrivalSpeed="12.48" duration="1831.00" routeLength="854.10" waitingTime="1717.00" waitingCount="6" stopTime="0.00" timeLoss="1764.48" rerouteNo="2" devices="tripinfo_67" vType="Cartype" speedFactor="0.91" vaporized=""/>
    <tripinfo id="30" depart="31.00" departLane="2NS1_0" departPos="5.10" departSpeed="0.00" departDelay="8.00" arrival="1917.00" arrivalLane="2NS4_0" arrivalPos="196.00" arrivalSpeed="16.02" duration="1886.00" routeLength="1723.99" waitingTime="1736.00" waitingCount="6" stopTime="0.00" timeLoss="1779.99" rerouteNo="5" devices="tripinfo_30" vType="Cartype" speedFactor="1.18" vaporized=""/>
    <tripinfo id="41" depart="39.00" departLane="2OW1_0" departPos="5.10" departSpeed="0.00" departDelay="10.00" arrival="1917.00" arrivalLane="3SN4_0" arrivalPos="196.00" arrivalSpeed="13.13" duration="1878.00" routeLength="854.10" waitingTime="1777.00" waitingCount="6" stopTime="0.00" timeLoss="1814.44" rerouteNo="2" devices="tripinfo_41" vType="Cartype" speedFactor="0.96" vaporized=""/>
    <tripinfo id="25" depart="26.00" departLane="2NS1_0" departPos="5.10" departSpeed="0.00" departDelay="5.00" arrival="1931.00" arrivalLane="2OW4_0" arrivalPos="196.00" arrivalSpeed="11.72" duration="1905.00" routeLength="1133.99" waitingTime="1777.00" waitingCount="6" stopTime="0.00" timeLoss="1812.78" rerouteNo="3" devices="tripinfo_25" vType="Cartype" speedFactor="0.87" vaporized=""/>
    <tripinfo id="54" depart="49.00" departLane="2OW1_0" departPos="5.10" departSpeed="0.00" departDelay="10.00" arrival="1936.00" arrivalLane="3NS4_0" arrivalPos="196.00" arrivalSpeed="13.60" duration="1887.00" routeLength="854.10" waitingTime="1781.00" waitingCount="7" stopTime="0.00" timeLoss="1826.30" rerouteNo="2" devices="tripinfo_54" vType="Cartype" speedFactor="1.00" vaporized=""/>
    <tripinfo id="23" depart="24.00" departLane="2OW1_0" departPos="5.10" departSpeed="0.00" departDelay="5.00" arrival="1957.00" arrivalLane="1SN4_0" arrivalPos="196.00" arrivalSpeed="12.01" duration="1933.00" routeLength="1413.30" waitingTime="1789.00" waitingCount="6" stopTime="0.00" timeLoss="1819.96" rerouteNo="4" devices="tripinfo_23" vType="Cartype" speedFactor="0.89" vaporized=""/>
    <tripinfo id="1" depart="1.00" departLane="2NS1_0" departPos="5.10" departSpeed="0.00" departDelay="0.00" arrival="1980.00" arrivalLane="3OW4_0" arrivalPos="196.00" arrivalSpeed="12.81" duration="1979.00" routeLength="1993.59" waitingTime="1801.00" waitingCount="6" stopTime="0.00" timeLoss="1828.09" rerouteNo="6" devices="tripinfo_1" vType="Cartype" speedFactor="0.94" vaporized=""/>
    <tripinfo id="27" depart="35.00" departLane="2WO1_0" departPos="5.10" departSpeed="0.00" departDelay="14.00" arrival="2224.00" arrivalLane="3OW3_0" arrivalPos="92.00" arrivalSpeed="12.84" duration="2189.00" routeLength="1029.70" waitingTime="2070.00" waitingCount="7" stopTime="0.00" timeLoss="2112.10" rerouteNo="3" devices="tripinfo_27" vType="Cartype" speedFactor="0.95" vaporized=""/>
    <tripinfo id="38" depart="36.00" departLane="2NS1_0" departPos="5.10" departSpeed="0.00" departDelay="8.00" arrival="2224.00" arrivalLane="2OW4_0" arrivalPos="196.00" arrivalSpeed="15.11" duration="2188.00" routeLength="1133.70" waitingTime="2070.00" waitingCount="7" stopTime="0.00" timeLoss="2115.01" rerouteNo="3" devices="tripinfo_38" vType="Cartype" speedFactor="1.10" vaporized=""/>
    <tripinfo id="59" depart="102.00" departLane="2WO1_0" departPos="5.10" departSpeed="0.00" departDelay="59.00" arrival="2230.00" arrivalLane="1SN4_0" arrivalPos="196.00" arrivalSpeed="13.32" duration="2128.00" routeLength="854.10" waitingTime="2003.00" waitingCount="7" stopTime="0.00" timeLoss="2064.91" rerouteNo="2" devices="tripinfo_59" vType="Cartype" speedFactor="0.97" vaporized=""/>
    <tripinfo id="24" depart="30.00" departLane="2WO1_0" departPos="5.10" departSpeed="0.00" departDelay="10.00" arrival="2261.00" arrivalLane="1WO4_0" arrivalPos="196.00" arrivalSpeed="11.15" duration="2231.00" routeLength="1413.30" waitingTime="2074.00" waitingCount="7" stopTime="0.00" timeLoss="2109.15" rerouteNo="4" devices="tripinfo_24" vType="Cartype" speedFactor="0.83" vaporized=""/>
    <tripinfo id="16" depart="28.00" departLane="2SN1_0" departPos="5.10" departSpeed="0.00" departDelay="13.00" arrival="2265.00" arrivalLane="1OW4_0" arrivalPos="196.00" arrivalSpeed="12.12" duration="2237.00" routeLength="1413.30" waitingTime="2087.00" waitingCount="7" stopTime="0.00" timeLoss="2122.80" rerouteNo="4" devices="tripinfo_16" vType="Cartype" speedFactor="0.88" vaporized=""/>
    <tripinfo id="106" depart="115.00" departLane="2SN1_0" departPos="5.10" departSpeed="0.00" departDelay="27.00" arrival="2529.00" arrivalLane="3OW3_0" arrivalPos="92.00" arrivalSpeed="13.79" duration="2414.00" routeLength="470.50" waitingTime="2290.00" waitingCount="8" stopTime="0.00" timeLoss="2381.01" rerouteNo="1" devices="tripinfo_106" vType="Cartype" speedFactor="1.01" vaporized=""/>
    <tripinfo id="40" depart="42.00" departLane="2NS1_0" departPos="5.10" departSpeed="0.00" departDelay="13.00" arrival="2533.00" arrivalLane="2WO4_0" arrivalPos="196.00" arrivalSpeed="13.93" duration="2491.00" routeLength="1133.70" waitingTime="2361.00" waitingCount="8" stopTime="0.00" timeLoss="2412.26" rerouteNo="3" devices="tripinfo_40" vType="Cartype" speedFactor="1.03" vaporized=""/>
    <tripinfo id="66" depart="107.00" departLane="2WO1_0" departPos="5.10" departSpeed="0.00" departDelay="58.00" arrival="2536.00" arrivalLane="1SN4_0" arrivalPos="196.00" arrivalSpeed="12.44" duration="2429.00" routeLength="854.10" waitingTime="2297.00" waitingCount="8" stopTime="0.00" timeLoss="2362.12" rerouteNo="2" devices="tripinfo_66" vType="Cartype" speedFactor="0.91" vaporized=""/>
    <tripinfo id="19" depart="34.00" departLane="2SN1_0" departPos="5.10" departSpeed="0.00" departDelay="16.00" arrival="2538.00" arrivalLane="2OW4_0" arrivalPos="196.00" arrivalSpeed="16.00" duration="2504.00" routeLength="1133.99" waitingTime="2382.00" waitingCount="8" stopTime="0.00" timeLoss="2434.62" rerouteNo="3" devices="tripinfo_19" vType="Cartype" speedFactor="1.16" vaporized=""/>
    <tripinfo id="22" depart="39.00" departLane="2SN1_0" departPos="5.10" departSpeed="0.00" departDelay="20.00" arrival="2546.00" arrivalLane="2SN4_0" arrivalPos="196.00" arrivalSpeed="13.40" duration="2507.00" routeLength="1133.70" waitingTime="2378.00" waitingCount="8" stopTime="0.00" timeLoss="2423.99" rerouteNo="3" devices="tripinfo_22" vType="Cartype" speedFactor="0.98" vaporized=""/>
    <tripinfo id="87" depart="84.00" departLane="2OW1_0" departPos="5.10" departSpeed="0.00" departDelay="15.00" arrival="2549.00" arrivalLane="3NS4_0" arrivalPos="196.00" arrivalSpeed="14.36" duration="2465.00" routeLength="854.10" waitingTime="2344.00" waitingCount="9" stopTime="0.00" timeLoss="2406.79" rerouteNo="2" devices="tripinfo_87" vType="Cartype" speedFactor="1.04" vaporized=""/>
    <tripinfo id="60" depart="64.00" departLane="2OW1_0" departPos="5.10" departSpeed="0.00" departDelay="21.00" arrival="2583.00" arrivalLane="3OW4_0" arrivalPos="196.00" arrivalSpeed="14.83" duration="2519.00" routeLength="1434.39" waitingTime="2369.00" waitingCount="9" stopTime="0.00" timeLoss="2424.32" rerouteNo="4" devices="tripinfo_60" vType="Cartype" speedFactor="1.08" vaporized=""/>
    <tripinfo id="18" depart="21.00" departLane="2NS1_0" departPos="5.10" departSpeed="0.00" departDelay="4.00" arrival="2594.00" arrivalLane="1SN4_0" arrivalPos="196.00" arrivalSpeed="12.73" duration="2573.00" routeLength="1972.50" waitingTime="2388.00" waitingCount="8" stopTime="0.00" timeLoss="2423.31" rerouteNo="6" devices="tripinfo_18" vType="Cartype" speedFactor="0.94" vaporized=""/>
    <tripinfo id="32" depart="50.00" departLane="2WO1_0" departPos="5.10" departSpeed="0.00" departDelay="25.00" arrival="2827.00" arrivalLane="3OW4_0" arrivalPos="196.00" arrivalSpeed="13.66" duration="2777.00" routeLength="854.10" waitingTime="2650.00" waitingCount="9" stopTime="0.00" timeLoss="2716.34" rerouteNo="2" devices="tripinfo_32" vType="Cartype" speedFactor="1.01" vaporized=""/>
    <tripinfo id="46" depart="54.00" departLane="2SN1_0" departPos="5.10" departSpeed="0.00" departDelay="19.00" arrival="2834.00" arrivalLane="3WO4_0" arrivalPos="196.00" arrivalSpeed="13.51" duration="2780.00" routeLength="854.10" waitingTime="2654.00" waitingCount="10" stopTime="0.00" timeLoss="2719.08" rerouteNo="2" devices="tripinfo_46" vType="Cartype" speedFactor="1.00" vaporized=""/>
    <tripinfo id="29" depart="29.00" departLane="2OW1_0" departPos="5.10" departSpeed="0.00" departDelay="7.00" arrival="2844.00" arrivalLane="1SN4_0" arrivalPos="196.00" arrivalSpeed="12.78" duration="2815.00" routeLength="1413.59" waitingTime="2655.00" waitingCount="9" stopTime="0.00" timeLoss="2706.91" rerouteNo="4" devices="tripinfo_29" vType="Cartype" speedFactor="0.93" vaporized=""/>
    <tripinfo id="58" depart="59.00" departLane="2OW1_0" departPos="5.10" departSpeed="0.00" departDelay="17.00" arrival="2852.00" arrivalLane="2SN4_0" arrivalPos="196.00" arrivalSpeed="14.04" duration="2793.00" routeLength="1133.70" waitingTime="2652.00" waitingCount="9" stopTime="0.00" timeLoss="2713.88" rerouteNo="3" devices="tripinfo_58" vType="Cartype" speedFactor="1.02" vaporized=""/>
    <tripinfo id="45" depart="57.00" departLane="2NS1_0" departPos="5.10" departSpeed="0.00" departDelay="23.00" arrival="3127.00" arrivalLane="1OW4_0" arrivalPos="196.00" arrivalSpeed="14.99" duration="3070.00" routeLength="854.10" waitingTime="2938.00" waitingCount="10" stopTime="0.00" timeLoss="3013.39" rerouteNo="2" devices="tripinfo_45" vType="Cartype" speedFactor="1.09" vaporized=""/>
    <tripinfo id="31" depart="45.00" departLane="2WO1_0" departPos="5.10" departSpeed="0.00" departDelay="21.00" arrival="3144.00" arrivalLane="2WO4_0" arrivalPos="196.00" arrivalSpeed="15.99" duration="3099.00" routeLength="1133.70" waitingTime="2962.00" waitingCount="10" stopTime="0.00" timeLoss="3028.50" rerouteNo="3" devices="tripinfo_31" vType="Cartype" speedFactor="1.15" vaporized=""/>
    <tripinfo id="48" depart="59.00" departLane="2SN1_0" departPos="5.10" departSpeed="0.00" departDelay="22.00" arrival="3147.00" arrivalLane="3WO4_0" arrivalPos="196.00" arrivalSpeed="12.00" duration="3088.00" routeLength="854.10" waitingTime="2949.00" waitingCount="11" stopTime="0.00" timeLoss="3018.63" rerouteNo="2" devices="tripinfo_48" vType="Cartype" speedFactor="0.88" vaporized=""/>
    <tripinfo id="26" depart="44.00" departLane="2SN1_0" departPos="5.10" departSpeed="0.00" departDelay="23.00" arrival="3156.00" arrivalLane="2OW4_0" arrivalPos="196.00" arrivalSpeed="12.67" duration="3112.00" routeLength="1133.99" waitingTime="2965.00" waitingCount="10" stopTime="0.00" timeLoss="3024.09" rerouteNo="3" devices="tripinfo_26" vType="Cartype" speedFactor="0.92" vaporized=""/>
    <tripinfo id="105" depart="100.00" departLane="2OW1_0" departPos="5.10" departSpeed="0.00" departDelay="13.00" arrival="3163.00" arrivalLane="3NS4_0" arrivalPos="196.00" arrivalSpeed="14.72" duration="3063.00" routeLength="854.10" waitingTime="2924.00" waitingCount="11" stopTime="0.00" timeLoss="3005.92" rerouteNo="2" devices="tripinfo_105" vType="Cartype" speedFactor="1.07" vaporized=""/>
    <tripinfo id="64" depart="69.00" departLane="2OW1_0" departPos="5.10" departSpeed="0.00" departDelay="23.00" arrival="3164.00" arrivalLane="2SN4_0" arrivalPos="196.00" arrivalSpeed="12.68" duration="3095.00" routeLength="1133.70" waitingTime="2946.00" waitingCount="10" stopTime="0.00" timeLoss="3008.63" rerouteNo="3" devices="tripinfo_64" vType="Cartype" speedFactor="0.94" vaporized=""/>
    <tripinfo id="104" depart="95.00" departLane="2OW1_0" departPos="5.10" departSpeed="0.00" departDelay="9.00" arrival="3177.00" arrivalLane="3OW3_0" arrivalPos="92.00" arrivalSpeed="12.23" duration="3082.00" routeLength="1029.70" waitingTime="2931.00" waitingCount="11" stopTime="0.00" timeLoss="3000.28" rerouteNo="3" devices="tripinfo_104" vType="Cartype" speedFactor="0.89" vaporized=""/>
    <tripinfo id="42" depart="47.00" departLane="2NS1_0" departPos="5.10" departSpeed="0.00" departDelay="17.00" arrival="3450.00" arrivalLane="3NS4_0" arrivalPos="196.00" arrivalSpeed="15.15" duration="3403.00" routeLength="1413.30" waitingTime="3245.00" waitingCount="11" stopTime="0.00" timeLoss="3310.47" rerouteNo="4" devices="tripinfo_42" vType="Cartype" speedFactor="1.09" vaporized=""/>
    <tripinfo id="28" depart="40.00" departLane="2WO1_0" departPos="5.10" departSpeed="0.00" departDelay="18.00" arrival="3469.00" arrivalLane="3NS4_0" arrivalPos="196.00" arrivalSpeed="15.34" duration="3429.00" routeLength="1413.30" waitingTime="3263.00" waitingCount="11" stopTime="0.00" timeLoss="3340.06" rerouteNo="4" devices="tripinfo_28" vType="Cartype" speedFactor="1.13" vaporized=""/>
    <tripinfo id="34" depart="55.00" departLane="2WO1_0" departPos="5.10" departSpeed="0.00" departDelay="29.00" arrival="3481.00" arrivalLane="1OW4_0" arrivalPos="196.00" arrivalSpeed="13.64" duration="3426.00" routeLength="1432.66" waitingTime="3249.00" waitingCount="11" stopTime="0.00" timeLoss="3322.87" rerouteNo="4" devices="tripinfo_34" vType="Cartype" speedFactor="0.99" vaporized=""/>
    <tripinfo id="84" depart="139.00" departLane="2WO1_0" departPos="5.10" departSpeed="0.00" departDelay="74.00" arrival="3503.00" arrivalLane="2SN4_0" arrivalPos="196.00" arrivalSpeed="15.61" duration="3364.00" routeLength="1153.06" waitingTime="3184.00" waitingCount="12" stopTime="0.00" timeLoss="3291.29" rerouteNo="3" devices="tripinfo_84" vType="Cartype" speedFactor="1.15" vaporized=""/>
</tripinfos>
