<?xml version="1.0" encoding="UTF-8"?>

<!-- generated on 01/28/20 20:45:47 by Eclipse SUMO Version 1.3.1
<configuration xmlns:xsi="http://www.w3.org/2001/XMLSchema-instance" xsi:noNamespaceSchemaLocation="http://sumo.dlr.de/xsd/sumoConfiguration.xsd">

    <input>
        <net-file value="Data/Cross_3_3.net.xml"/>
        <route-files value="Data/Cross12.rou.xml"/>
        <additional-files value="Data/rerouter.xml,Data/trafficLight.add.xml"/>
    </input>

    <output>
        <tripinfo-output value="tripinfo.xml"/>
    </output>

    <report>
        <log value="logfile.txt"/>
    </report>

    <traci_server>
        <remote-port value="53170"/>
    </traci_server>

</configuration>
-->

<tripinfos xmlns:xsi="http://www.w3.org/2001/XMLSchema-instance" xsi:noNamespaceSchemaLocation="http://sumo.dlr.de/xsd/tripinfo_file.xsd">
    <tripinfo id="12" depart="11.00" departLane="2NS1_0" departPos="5.10" departSpeed="0.00" departDelay="4.00" arrival="89.00" arrivalLane="1WO4_0" arrivalPos="196.00" arrivalSpeed="14.17" duration="78.00" routeLength="894.55" waitingTime="0.00" waitingCount="0" stopTime="0.00" timeLoss="15.03" rerouteNo="2" devices="tripinfo_12" vType="Cartype" speedFactor="1.05" vaporized=""/>
    <tripinfo id="3" depart="1.00" departLane="2NS1_0" departPos="5.10" departSpeed="0.00" departDelay="0.00" arrival="94.00" arrivalLane="2NS4_0" arrivalPos="196.00" arrivalSpeed="15.01" duration="93.00" routeLength="1196.97" waitingTime="0.00" waitingCount="0" stopTime="0.00" timeLoss="12.51" rerouteNo="3" devices="tripinfo_3" vType="Cartype" speedFactor="1.08" vaporized=""/>
    <tripinfo id="13" depart="15.00" departLane="2OW1_0" departPos="5.10" departSpeed="0.00" departDelay="8.00" arrival="107.00" arrivalLane="3WO4_0" arrivalPos="196.00" arrivalSpeed="15.32" duration="92.00" routeLength="892.82" waitingTime="2.00" waitingCount="1" stopTime="0.00" timeLoss="33.25" rerouteNo="2" devices="tripinfo_13" vType="Cartype" speedFactor="1.12" vaporized=""/>
    <tripinfo id="18" depart="15.00" departLane="2SN1_0" departPos="5.10" departSpeed="0.00" departDelay="4.00" arrival="115.00" arrivalLane="3OW4_0" arrivalPos="196.00" arrivalSpeed="12.62" duration="100.00" routeLength="894.55" waitingTime="4.00" waitingCount="1" stopTime="0.00" timeLoss="29.75" rerouteNo="2" devices="tripinfo_18" vType="Cartype" speedFactor="0.94" vaporized=""/>
    <tripinfo id="10" depart="15.00" departLane="2WO1_0" departPos="5.10" departSpeed="0.00" departDelay="10.00" arrival="117.00" arrivalLane="1SN4_0" arrivalPos="196.00" arrivalSpeed="15.14" duration="102.00" routeLength="894.55" waitingTime="7.00" waitingCount="1" stopTime="0.00" timeLoss="41.73" rerouteNo="2" devices="tripinfo_10" vType="Cartype" speedFactor="1.09" vaporized=""/>
    <tripinfo id="23" depart="20.00" departLane="2SN1_0" departPos="5.10" departSpeed="0.00" departDelay="8.00" arrival="120.00" arrivalLane="3OW4_0" arrivalPos="196.00" arrivalSpeed="12.10" duration="100.00" routeLength="894.55" waitingTime="1.00" waitingCount="1" stopTime="0.00" timeLoss="25.82" rerouteNo="2" devices="tripinfo_23" vType="Cartype" speedFactor="0.89" vaporized=""/>
    <tripinfo id="5" depart="6.00" departLane="2NS1_0" departPos="5.10" departSpeed="0.00" departDelay="3.00" arrival="122.00" arrivalLane="2WO4_0" arrivalPos="196.00" arrivalSpeed="11.46" duration="116.00" routeLength="1195.24" waitingTime="0.00" waitingCount="0" stopTime="0.00" timeLoss="11.29" rerouteNo="3" devices="tripinfo_5" vType="Cartype" speedFactor="0.83" vaporized=""/>
    <tripinfo id="16" depart="25.00" departLane="2WO1_0" departPos="5.10" departSpeed="0.00" departDelay="16.00" arrival="122.00" arrivalLane="1SN4_0" arrivalPos="196.00" arrivalSpeed="12.19" duration="97.00" routeLength="894.55" waitingTime="0.00" waitingCount="0" stopTime="0.00" timeLoss="22.96" rerouteNo="2" devices="tripinfo_16" vType="Cartype" speedFactor="0.88" vaporized=""/>
    <tripinfo id="32" depart="41.00" departLane="2NS1_0" departPos="5.10" departSpeed="0.00" departDelay="22.00" arrival="122.00" arrivalLane="3SN4_0" arrivalPos="196.00" arrivalSpeed="13.72" duration="81.00" routeLength="892.82" waitingTime="0.00" waitingCount="0" stopTime="0.00" timeLoss="15.55" rerouteNo="2" devices="tripinfo_32" vType="Cartype" speedFactor="1.01" vaporized=""/>
    <tripinfo id="35" depart="31.00" departLane="2SN1_0" departPos="5.10" departSpeed="0.00" departDelay="10.00" arrival="123.00" arrivalLane="3WO4_0" arrivalPos="196.00" arrivalSpeed="13.79" duration="92.00" routeLength="886.92" waitingTime="2.00" waitingCount="1" stopTime="0.00" timeLoss="28.71" rerouteNo="2" devices="tripinfo_35" vType="Cartype" speedFactor="1.02" vaporized=""/>
    <tripinfo id="27" depart="25.00" departLane="2OW1_0" departPos="5.10" departSpeed="0.00" departDelay="9.00" arrival="136.00" arrivalLane="1WO4_0" arrivalPos="196.00" arrivalSpeed="12.82" duration="111.00" routeLength="877.56" waitingTime="15.00" waitingCount="1" stopTime="0.00" timeLoss="42.84" rerouteNo="2" devices="tripinfo_27" vType="Cartype" speedFactor="0.95" vaporized=""/>
    <tripinfo id="1" depart="0.00" departLane="2WO1_0" departPos="5.10" departSpeed="0.00" departDelay="0.00" arrival="138.00" arrivalLane="2SN4_0" arrivalPos="196.00" arrivalSpeed="12.83" duration="138.00" routeLength="1195.24" waitingTime="22.00" waitingCount="1" stopTime="0.00" timeLoss="45.16" rerouteNo="3" devices="tripinfo_1" vType="Cartype" speedFactor="0.94" vaporized=""/>
    <tripinfo id="14" depart="20.00" departLane="2WO1_0" departPos="5.10" departSpeed="0.00" departDelay="12.00" arrival="157.00" arrivalLane="1NS4_0" arrivalPos="196.00" arrivalSpeed="13.64" duration="137.00" routeLength="886.92" waitingTime="45.00" waitingCount="1" stopTime="0.00" timeLoss="71.59" rerouteNo="2" devices="tripinfo_14" vType="Cartype" speedFactor="0.99" vaporized=""/>
    <tripinfo id="33" depart="30.00" departLane="2OW1_0" departPos="5.10" departSpeed="0.00" departDelay="11.00" arrival="160.00" arrivalLane="2NS4_0" arrivalPos="196.00" arrivalSpeed="16.27" duration="130.00" routeLength="1195.24" waitingTime="7.00" waitingCount="2" stopTime="0.00" timeLoss="55.56" rerouteNo="3" devices="tripinfo_33" vType="Cartype" speedFactor="1.17" vaporized=""/>
    <tripinfo id="20" depart="40.00" departLane="2WO1_0" departPos="5.10" departSpeed="0.00" departDelay="29.00" arrival="163.00" arrivalLane="3OW4_0" arrivalPos="196.00" arrivalSpeed="14.07" duration="123.00" routeLength="877.56" waitingTime="31.00" waitingCount="1" stopTime="0.00" timeLoss="58.51" rerouteNo="2" devices="tripinfo_20" vType="Cartype" speedFactor="1.02" vaporized=""/>
    <tripinfo id="29" depart="31.00" departLane="2NS1_0" departPos="5.10" departSpeed="0.00" departDelay="13.00" arrival="163.00" arrivalLane="1SN4_0" arrivalPos="196.00" arrivalSpeed="12.86" duration="132.00" routeLength="877.56" waitingTime="31.00" waitingCount="1" stopTime="0.00" timeLoss="62.29" rerouteNo="2" devices="tripinfo_29" vType="Cartype" speedFactor="0.93" vaporized=""/>
    <tripinfo id="25" depart="26.00" departLane="2NS1_0" departPos="5.10" departSpeed="0.00" departDelay="11.00" arrival="164.00" arrivalLane="1OW4_0" arrivalPos="196.00" arrivalSpeed="11.95" duration="138.00" routeLength="886.92" waitingTime="38.00" waitingCount="1" stopTime="0.00" timeLoss="63.68" rerouteNo="2" devices="tripinfo_25" vType="Cartype" speedFactor="0.87" vaporized=""/>
    <tripinfo id="34" depart="35.00" departLane="2OW1_0" departPos="5.10" departSpeed="0.00" departDelay="15.00" arrival="165.00" arrivalLane="2NS4_0" arrivalPos="196.00" arrivalSpeed="13.69" duration="130.00" routeLength="1195.24" waitingTime="2.00" waitingCount="1" stopTime="0.00" timeLoss="42.23" rerouteNo="3" devices="tripinfo_34" vType="Cartype" speedFactor="0.99" vaporized=""/>
    <tripinfo id="59" depart="68.00" departLane="2NS1_0" departPos="5.10" departSpeed="0.00" departDelay="27.00" arrival="165.00" arrivalLane="1SN4_0" arrivalPos="196.00" arrivalSpeed="13.16" duration="97.00" routeLength="877.56" waitingTime="2.00" waitingCount="1" stopTime="0.00" timeLoss="29.78" rerouteNo="2" devices="tripinfo_59" vType="Cartype" speedFactor="0.97" vaporized=""/>
    <tripinfo id="63" depart="83.00" departLane="2SN1_0" departPos="5.10" departSpeed="0.00" departDelay="38.00" arrival="166.00" arrivalLane="3OW3_0" arrivalPos="92.00" arrivalSpeed="13.60" duration="83.00" routeLength="489.86" waitingTime="15.00" waitingCount="2" stopTime="0.00" timeLoss="45.61" rerouteNo="1" devices="tripinfo_63" vType="Cartype" speedFactor="0.99" vaporized=""/>
    <tripinfo id="72" depart="71.00" departLane="2OW1_0" departPos="5.10" departSpeed="0.00" departDelay="20.00" arrival="168.00" arrivalLane="3WO4_0" arrivalPos="196.00" arrivalSpeed="12.68" duration="97.00" routeLength="892.82" waitingTime="3.00" waitingCount="1" stopTime="0.00" timeLoss="26.51" rerouteNo="2" devices="tripinfo_72" vType="Cartype" speedFactor="0.94" vaporized=""/>
    <tripinfo id="7" depart="5.00" departLane="2OW1_0" departPos="5.10" departSpeed="0.00" departDelay="2.00" arrival="169.00" arrivalLane="3NS4_0" arrivalPos="196.00" arrivalSpeed="12.11" duration="164.00" routeLength="894.55" waitingTime="56.00" waitingCount="2" stopTime="0.00" timeLoss="90.47" rerouteNo="2" devices="tripinfo_7" vType="Cartype" speedFactor="0.89" vaporized=""/>
    <tripinfo id="19" depart="35.00" departLane="2WO1_0" departPos="5.10" departSpeed="0.00" departDelay="24.00" arrival="170.00" arrivalLane="2WO4_0" arrivalPos="196.00" arrivalSpeed="16.05" duration="135.00" routeLength="1196.97" waitingTime="16.00" waitingCount="1" stopTime="0.00" timeLoss="59.66" rerouteNo="3" devices="tripinfo_19" vType="Cartype" speedFactor="1.16" vaporized=""/>
    <tripinfo id="44" depart="70.00" departLane="2WO1_0" departPos="5.10" departSpeed="0.00" departDelay="42.00" arrival="170.00" arrivalLane="1NS4_0" arrivalPos="196.00" arrivalSpeed="14.41" duration="100.00" routeLength="886.92" waitingTime="8.00" waitingCount="1" stopTime="0.00" timeLoss="37.44" rerouteNo="2" devices="tripinfo_44" vType="Cartype" speedFactor="1.04" vaporized=""/>
    <tripinfo id="73" depart="88.00" departLane="2NS1_0" departPos="5.10" departSpeed="0.00" departDelay="36.00" arrival="170.00" arrivalLane="1SN4_0" arrivalPos="196.00" arrivalSpeed="14.45" duration="82.00" routeLength="877.56" waitingTime="0.00" waitingCount="0" stopTime="0.00" timeLoss="20.77" rerouteNo="2" devices="tripinfo_73" vType="Cartype" speedFactor="1.06" vaporized=""/>
    <tripinfo id="26" depart="20.00" departLane="2OW1_0" departPos="5.10" departSpeed="0.00" departDelay="5.00" arrival="171.00" arrivalLane="3NS4_0" arrivalPos="196.00" arrivalSpeed="12.49" duration="151.00" routeLength="894.55" waitingTime="44.00" waitingCount="1" stopTime="0.00" timeLoss="79.54" rerouteNo="2" devices="tripinfo_26" vType="Cartype" speedFactor="0.92" vaporized=""/>
    <tripinfo id="36" depart="60.00" departLane="2WO1_0" departPos="5.10" departSpeed="0.00" departDelay="39.00" arrival="171.00" arrivalLane="3OW4_0" arrivalPos="196.00" arrivalSpeed="13.38" duration="111.00" routeLength="877.56" waitingTime="15.00" waitingCount="1" stopTime="0.00" timeLoss="44.56" rerouteNo="2" devices="tripinfo_36" vType="Cartype" speedFactor="0.97" vaporized=""/>
    <tripinfo id="30" depart="36.00" departLane="2NS1_0" departPos="5.10" departSpeed="0.00" departDelay="18.00" arrival="176.00" arrivalLane="1WO4_0" arrivalPos="196.00" arrivalSpeed="16.35" duration="140.00" routeLength="894.55" waitingTime="53.00" waitingCount="1" stopTime="0.00" timeLoss="84.67" rerouteNo="2" devices="tripinfo_30" vType="Cartype" speedFactor="1.18" vaporized=""/>
    <tripinfo id="11" depart="10.00" departLane="2OW1_0" departPos="5.10" departSpeed="0.00" departDelay="5.00" arrival="179.00" arrivalLane="1WO4_0" arrivalPos="196.00" arrivalSpeed="14.17" duration="169.00" routeLength="1478.94" waitingTime="19.00" waitingCount="2" stopTime="0.00" timeLoss="63.63" rerouteNo="4" devices="tripinfo_11" vType="Cartype" speedFactor="1.03" vaporized=""/>
    <tripinfo id="22" depart="21.00" departLane="2NS1_0" departPos="5.10" departSpeed="0.00" departDelay="9.00" arrival="181.00" arrivalLane="2NS4_0" arrivalPos="196.00" arrivalSpeed="13.17" duration="160.00" routeLength="1196.97" waitingTime="45.00" waitingCount="1" stopTime="0.00" timeLoss="70.68" rerouteNo="3" devices="tripinfo_22" vType="Cartype" speedFactor="0.98" vaporized=""/>
    <tripinfo id="43" depart="52.00" departLane="2SN1_0" departPos="5.10" departSpeed="0.00" departDelay="24.00" arrival="181.00" arrivalLane="2WO4_0" arrivalPos="196.00" arrivalSpeed="14.37" duration="129.00" routeLength="1187.61" waitingTime="19.00" waitingCount="1" stopTime="0.00" timeLoss="45.20" rerouteNo="3" devices="tripinfo_43" vType="Cartype" speedFactor="1.04" vaporized=""/>
    <tripinfo id="50" depart="63.00" departLane="2NS1_0" departPos="5.10" departSpeed="0.00" departDelay="30.00" arrival="181.00" arrivalLane="3SN4_0" arrivalPos="196.00" arrivalSpeed="11.49" duration="118.00" routeLength="892.82" waitingTime="16.00" waitingCount="1" stopTime="0.00" timeLoss="40.78" rerouteNo="2" devices="tripinfo_50" vType="Cartype" speedFactor="0.85" vaporized=""/>
    <tripinfo id="17" depart="30.00" departLane="2WO1_0" departPos="5.10" departSpeed="0.00" departDelay="20.00" arrival="182.00" arrivalLane="1WO4_0" arrivalPos="196.00" arrivalSpeed="12.79" duration="152.00" routeLength="1486.57" waitingTime="3.00" waitingCount="1" stopTime="0.00" timeLoss="36.56" rerouteNo="4" devices="tripinfo_17" vType="Cartype" speedFactor="0.94" vaporized=""/>
    <tripinfo id="39" depart="52.00" departLane="2NS1_0" departPos="5.10" departSpeed="0.00" departDelay="28.00" arrival="186.00" arrivalLane="2NS4_0" arrivalPos="196.00" arrivalSpeed="12.23" duration="134.00" routeLength="1196.97" waitingTime="12.00" waitingCount="1" stopTime="0.00" timeLoss="37.52" rerouteNo="3" devices="tripinfo_39" vType="Cartype" speedFactor="0.90" vaporized=""/>
    <tripinfo id="96" depart="113.00" departLane="2NS1_0" departPos="5.10" departSpeed="0.00" departDelay="43.00" arrival="192.00" arrivalLane="1WO4_0" arrivalPos="196.00" arrivalSpeed="13.92" duration="79.00" routeLength="894.55" waitingTime="0.00" waitingCount="0" stopTime="0.00" timeLoss="14.13" rerouteNo="2" devices="tripinfo_96" vType="Cartype" speedFactor="1.01" vaporized=""/>
    <tripinfo id="80" depart="93.00" departLane="2NS1_0" departPos="5.10" departSpeed="0.00" departDelay="33.00" arrival="193.00" arrivalLane="2NS4_0" arrivalPos="196.00" arrivalSpeed="14.08" duration="100.00" routeLength="1196.97" waitingTime="0.00" waitingCount="0" stopTime="0.00" timeLoss="16.17" rerouteNo="3" devices="tripinfo_80" vType="Cartype" speedFactor="1.03" vaporized=""/>
    <tripinfo id="75" depart="98.00" departLane="2SN1_0" departPos="5.10" departSpeed="0.00" departDelay="45.00" arrival="197.00" arrivalLane="3OW4_0" arrivalPos="196.00" arrivalSpeed="13.54" duration="99.00" routeLength="894.55" waitingTime="6.00" waitingCount="1" stopTime="0.00" timeLoss="32.70" rerouteNo="2" devices="tripinfo_75" vType="Cartype" speedFactor="0.98" vaporized=""/>
    <tripinfo id="83" depart="98.00" departLane="2NS1_0" departPos="5.10" departSpeed="0.00" departDelay="35.00" arrival="202.00" arrivalLane="2WO4_0" arrivalPos="196.00" arrivalSpeed="13.11" duration="104.00" routeLength="1195.24" waitingTime="0.00" waitingCount="0" stopTime="0.00" timeLoss="13.57" rerouteNo="3" devices="tripinfo_83" vType="Cartype" speedFactor="0.97" vaporized=""/>
    <tripinfo id="51" depart="81.00" departLane="2WO1_0" departPos="5.10" departSpeed="0.00" departDelay="48.00" arrival="203.00" arrivalLane="1SN4_0" arrivalPos="196.00" arrivalSpeed="15.89" duration="122.00" routeLength="894.55" waitingTime="18.00" waitingCount="3" stopTime="0.00" timeLoss="66.08" rerouteNo="2" devices="tripinfo_51" vType="Cartype" speedFactor="1.17" vaporized=""/>
    <tripinfo id="62" depart="102.00" departLane="2WO1_0" departPos="5.10" departSpeed="0.00" departDelay="58.00" arrival="204.00" arrivalLane="1OW4_0" arrivalPos="196.00" arrivalSpeed="13.86" duration="102.00" routeLength="892.82" waitingTime="2.00" waitingCount="1" stopTime="0.00" timeLoss="36.95" rerouteNo="2" devices="tripinfo_62" vType="Cartype" speedFactor="1.02" vaporized=""/>
    <tripinfo id="102" depart="123.00" departLane="2NS1_0" departPos="5.10" departSpeed="0.00" departDelay="49.00" arrival="206.00" arrivalLane="3SN4_0" arrivalPos="196.00" arrivalSpeed="13.28" duration="83.00" routeLength="892.82" waitingTime="0.00" waitingCount="0" stopTime="0.00" timeLoss="14.12" rerouteNo="2" devices="tripinfo_102" vType="Cartype" speedFactor="0.97" vaporized=""/>
    <tripinfo id="54" depart="51.00" departLane="2OW1_0" departPos="5.10" departSpeed="0.00" departDelay="15.00" arrival="208.00" arrivalLane="1SN4_0" arrivalPos="196.00" arrivalSpeed="13.82" duration="157.00" routeLength="1488.59" waitingTime="12.00" waitingCount="1" stopTime="0.00" timeLoss="49.40" rerouteNo="4" devices="tripinfo_54" vType="Cartype" speedFactor="1.00" vaporized=""/>
    <tripinfo id="60" depart="78.00" departLane="2SN1_0" departPos="5.10" departSpeed="0.00" departDelay="37.00" arrival="209.00" arrivalLane="3WO4_0" arrivalPos="196.00" arrivalSpeed="14.94" duration="131.00" routeLength="886.92" waitingTime="29.00" waitingCount="2" stopTime="0.00" timeLoss="70.81" rerouteNo="2" devices="tripinfo_60" vType="Cartype" speedFactor="1.08" vaporized=""/>
    <tripinfo id="74" depart="93.00" departLane="2SN1_0" departPos="5.10" departSpeed="0.00" departDelay="41.00" arrival="212.00" arrivalLane="3NS4_0" arrivalPos="196.00" arrivalSpeed="12.92" duration="119.00" routeLength="877.56" waitingTime="13.00" waitingCount="2" stopTime="0.00" timeLoss="50.92" rerouteNo="2" devices="tripinfo_74" vType="Cartype" speedFactor="0.96" vaporized=""/>
    <tripinfo id="91" depart="128.00" departLane="2SN1_0" departPos="5.10" departSpeed="0.00" departDelay="61.00" arrival="214.00" arrivalLane="3WO4_0" arrivalPos="196.00" arrivalSpeed="12.25" duration="86.00" routeLength="886.92" waitingTime="0.00" waitingCount="0" stopTime="0.00" timeLoss="12.81" rerouteNo="2" devices="tripinfo_91" vType="Cartype" speedFactor="0.89" vaporized=""/>
    <tripinfo id="0" depart="0.00" departLane="2SN1_0" departPos="5.10" departSpeed="0.00" departDelay="0.00" arrival="216.00" arrivalLane="2SN4_0" arrivalPos="196.00" arrivalSpeed="14.45" duration="216.00" routeLength="1196.97" waitingTime="81.00" waitingCount="3" stopTime="0.00" timeLoss="134.50" rerouteNo="3" devices="tripinfo_0" vType="Cartype" speedFactor="1.06" vaporized=""/>
    <tripinfo id="90" depart="123.00" departLane="2SN1_0" departPos="5.10" departSpeed="0.00" departDelay="56.00" arrival="216.00" arrivalLane="3OW4_0" arrivalPos="196.00" arrivalSpeed="14.07" duration="93.00" routeLength="894.55" waitingTime="3.00" waitingCount="1" stopTime="0.00" timeLoss="28.25" rerouteNo="2" devices="tripinfo_90" vType="Cartype" speedFactor="1.02" vaporized=""/>
    <tripinfo id="8" depart="10.00" departLane="2SN1_0" departPos="5.10" departSpeed="0.00" departDelay="6.00" arrival="219.00" arrivalLane="2SN4_0" arrivalPos="196.00" arrivalSpeed="12.88" duration="209.00" routeLength="1196.97" waitingTime="69.00" waitingCount="2" stopTime="0.00" timeLoss="116.96" rerouteNo="3" devices="tripinfo_8" vType="Cartype" speedFactor="0.94" vaporized=""/>
    <tripinfo id="58" depart="56.00" departLane="2OW1_0" departPos="5.10" departSpeed="0.00" departDelay="17.00" arrival="221.00" arrivalLane="2SN4_0" arrivalPos="196.00" arrivalSpeed="14.10" duration="165.00" routeLength="1187.61" waitingTime="54.00" waitingCount="1" stopTime="0.00" timeLoss="80.27" rerouteNo="3" devices="tripinfo_58" vType="Cartype" speedFactor="1.02" vaporized=""/>
    <tripinfo id="9" depart="10.00" departLane="2WO1_0" departPos="5.10" departSpeed="0.00" departDelay="5.00" arrival="223.00" arrivalLane="3SN4_0" arrivalPos="196.00" arrivalSpeed="11.76" duration="213.00" routeLength="1495.93" waitingTime="51.00" waitingCount="2" stopTime="0.00" timeLoss="86.39" rerouteNo="4" devices="tripinfo_9" vType="Cartype" speedFactor="0.86" vaporized=""/>
    <tripinfo id="66" depart="66.00" departLane="2OW1_0" departPos="5.10" departSpeed="0.00" departDelay="20.00" arrival="225.00" arrivalLane="2SN4_0" arrivalPos="196.00" arrivalSpeed="12.26" duration="159.00" routeLength="1187.61" waitingTime="40.00" waitingCount="1" stopTime="0.00" timeLoss="63.38" rerouteNo="3" devices="tripinfo_66" vType="Cartype" speedFactor="0.91" vaporized=""/>
    <tripinfo id="79" depart="76.00" departLane="2OW1_0" departPos="5.10" departSpeed="0.00" departDelay="18.00" arrival="225.00" arrivalLane="3SN4_0" arrivalPos="196.00" arrivalSpeed="13.21" duration="149.00" routeLength="886.92" waitingTime="47.00" waitingCount="2" stopTime="0.00" timeLoss="88.95" rerouteNo="2" devices="tripinfo_79" vType="Cartype" speedFactor="1.09" vaporized=""/>
    <tripinfo id="98" depart="91.00" departLane="2OW1_0" departPos="5.10" departSpeed="0.00" departDelay="21.00" arrival="226.00" arrivalLane="3SN4_0" arrivalPos="196.00" arrivalSpeed="12.92" duration="135.00" routeLength="886.92" waitingTime="32.00" waitingCount="2" stopTime="0.00" timeLoss="77.41" rerouteNo="2" devices="tripinfo_98" vType="Cartype" speedFactor="1.12" vaporized=""/>
    <tripinfo id="108" depart="106.00" departLane="2OW1_0" departPos="5.10" departSpeed="0.00" departDelay="30.00" arrival="227.00" arrivalLane="2OW4_0" arrivalPos="196.00" arrivalSpeed="14.59" duration="121.00" routeLength="1197.26" waitingTime="2.00" waitingCount="1" stopTime="0.00" timeLoss="39.88" rerouteNo="3" devices="tripinfo_108" vType="Cartype" speedFactor="1.06" vaporized=""/>
    <tripinfo id="111" depart="111.00" departLane="2OW1_0" departPos="5.10" departSpeed="0.00" departDelay="32.00" arrival="229.00" arrivalLane="1WO4_0" arrivalPos="196.00" arrivalSpeed="11.77" duration="118.00" routeLength="877.56" waitingTime="9.00" waitingCount="1" stopTime="0.00" timeLoss="43.12" rerouteNo="2" devices="tripinfo_111" vType="Cartype" speedFactor="0.87" vaporized=""/>
    <tripinfo id="123" depart="132.00" departLane="2OW1_0" departPos="5.10" departSpeed="0.00" departDelay="41.00" arrival="229.00" arrivalLane="3SN4_0" arrivalPos="196.00" arrivalSpeed="14.04" duration="97.00" routeLength="886.92" waitingTime="3.00" waitingCount="1" stopTime="0.00" timeLoss="33.25" rerouteNo="2" devices="tripinfo_123" vType="Cartype" speedFactor="1.02" vaporized=""/>
    <tripinfo id="31" depart="25.00" departLane="2SN1_0" departPos="5.10" departSpeed="0.00" departDelay="7.00" arrival="231.00" arrivalLane="3SN4_0" arrivalPos="196.00" arrivalSpeed="14.91" duration="206.00" routeLength="1486.57" waitingTime="50.00" waitingCount="2" stopTime="0.00" timeLoss="111.11" rerouteNo="4" devices="tripinfo_31" vType="Cartype" speedFactor="1.15" vaporized=""/>
    <tripinfo id="61" depart="97.00" departLane="2WO1_0" departPos="5.10" departSpeed="0.00" departDelay="56.00" arrival="242.00" arrivalLane="1NS4_0" arrivalPos="196.00" arrivalSpeed="15.49" duration="145.00" routeLength="886.92" waitingTime="49.00" waitingCount="1" stopTime="0.00" timeLoss="86.93" rerouteNo="2" devices="tripinfo_61" vType="Cartype" speedFactor="1.12" vaporized=""/>
    <tripinfo id="6" depart="5.00" departLane="2SN1_0" departPos="5.10" departSpeed="0.00" departDelay="2.00" arrival="245.00" arrivalLane="1NS4_0" arrivalPos="196.00" arrivalSpeed="14.15" duration="240.00" routeLength="1494.49" waitingTime="75.00" waitingCount="4" stopTime="0.00" timeLoss="135.08" rerouteNo="4" devices="tripinfo_6" vType="Cartype" speedFactor="1.05" vaporized=""/>
    <tripinfo id="95" depart="108.00" departLane="2NS1_0" departPos="5.10" departSpeed="0.00" departDelay="39.00" arrival="246.00" arrivalLane="1SN4_0" arrivalPos="196.00" arrivalSpeed="14.56" duration="138.00" routeLength="877.56" waitingTime="49.00" waitingCount="1" stopTime="0.00" timeLoss="76.43" rerouteNo="2" devices="tripinfo_95" vType="Cartype" speedFactor="1.06" vaporized=""/>
    <tripinfo id="71" depart="83.00" departLane="2NS1_0" departPos="5.10" departSpeed="0.00" departDelay="32.00" arrival="247.00" arrivalLane="1NS4_0" arrivalPos="196.00" arrivalSpeed="13.28" duration="164.00" routeLength="1486.86" waitingTime="16.00" waitingCount="1" stopTime="0.00" timeLoss="52.72" rerouteNo="4" devices="tripinfo_71" vType="Cartype" speedFactor="0.97" vaporized=""/>
    <tripinfo id="84" depart="133.00" departLane="2WO1_0" departPos="5.10" departSpeed="0.00" departDelay="70.00" arrival="247.00" arrivalLane="3OW4_0" arrivalPos="196.00" arrivalSpeed="15.78" duration="114.00" routeLength="877.56" waitingTime="26.00" waitingCount="1" stopTime="0.00" timeLoss="57.73" rerouteNo="2" devices="tripinfo_84" vType="Cartype" speedFactor="1.15" vaporized=""/>
    <tripinfo id="99" depart="96.00" departLane="2OW1_0" departPos="5.10" departSpeed="0.00" departDelay="25.00" arrival="251.00" arrivalLane="3NS4_0" arrivalPos="196.00" arrivalSpeed="14.87" duration="155.00" routeLength="894.55" waitingTime="50.00" waitingCount="3" stopTime="0.00" timeLoss="95.63" rerouteNo="2" devices="tripinfo_99" vType="Cartype" speedFactor="1.10" vaporized=""/>
    <tripinfo id="131" depart="174.00" departLane="2NS1_0" departPos="5.10" departSpeed="0.00" departDelay="78.00" arrival="251.00" arrivalLane="1OW4_0" arrivalPos="196.00" arrivalSpeed="14.65" duration="77.00" routeLength="886.92" waitingTime="0.00" waitingCount="0" stopTime="0.00" timeLoss="16.51" rerouteNo="2" devices="tripinfo_131" vType="Cartype" speedFactor="1.07" vaporized=""/>
    <tripinfo id="126" depart="142.00" departLane="2OW1_0" departPos="5.10" departSpeed="0.00" departDelay="49.00" arrival="253.00" arrivalLane="3WO4_0" arrivalPos="196.00" arrivalSpeed="13.98" duration="111.00" routeLength="892.82" waitingTime="8.00" waitingCount="2" stopTime="0.00" timeLoss="46.92" rerouteNo="2" devices="tripinfo_126" vType="Cartype" speedFactor="1.03" vaporized=""/>
    <tripinfo id="38" depart="47.00" departLane="2NS1_0" departPos="5.10" departSpeed="0.00" departDelay="24.00" arrival="255.00" arrivalLane="3NS4_0" arrivalPos="196.00" arrivalSpeed="15.28" duration="208.00" routeLength="1486.57" waitingTime="52.00" waitingCount="3" stopTime="0.00" timeLoss="109.57" rerouteNo="4" devices="tripinfo_38" vType="Cartype" speedFactor="1.10" vaporized=""/>
    <tripinfo id="93" depart="148.00" departLane="2WO1_0" departPos="5.10" departSpeed="0.00" departDelay="80.00" arrival="255.00" arrivalLane="1NS4_0" arrivalPos="196.00" arrivalSpeed="12.44" duration="107.00" routeLength="886.92" waitingTime="14.00" waitingCount="1" stopTime="0.00" timeLoss="36.40" rerouteNo="2" devices="tripinfo_93" vType="Cartype" speedFactor="0.92" vaporized=""/>
    <tripinfo id="128" depart="164.00" departLane="2NS1_0" departPos="5.10" departSpeed="0.00" departDelay="69.00" arrival="257.00" arrivalLane="1WO4_0" arrivalPos="196.00" arrivalSpeed="15.46" duration="93.00" routeLength="894.55" waitingTime="7.00" waitingCount="1" stopTime="0.00" timeLoss="34.81" rerouteNo="2" devices="tripinfo_128" vType="Cartype" speedFactor="1.12" vaporized=""/>
    <tripinfo id="24" depart="50.00" departLane="2WO1_0" departPos="5.10" departSpeed="0.00" departDelay="36.00" arrival="259.00" arrivalLane="2WO4_0" arrivalPos="196.00" arrivalSpeed="11.43" duration="209.00" routeLength="1196.97" waitingTime="62.00" waitingCount="3" stopTime="0.00" timeLoss="104.08" rerouteNo="3" devices="tripinfo_24" vType="Cartype" speedFactor="0.83" vaporized=""/>
    <tripinfo id="129" depart="148.00" departLane="2OW1_0" departPos="5.10" departSpeed="0.00" departDelay="53.00" arrival="261.00" arrivalLane="3NS4_0" arrivalPos="196.00" arrivalSpeed="13.68" duration="113.00" routeLength="894.55" waitingTime="10.00" waitingCount="1" stopTime="0.00" timeLoss="47.47" rerouteNo="2" devices="tripinfo_129" vType="Cartype" speedFactor="1.01" vaporized=""/>
    <tripinfo id="104" depart="158.00" departLane="2WO1_0" departPos="5.10" departSpeed="0.00" departDelay="84.00" arrival="262.00" arrivalLane="1NS4_0" arrivalPos="196.00" arrivalSpeed="12.26" duration="104.00" routeLength="886.92" waitingTime="8.00" waitingCount="1" stopTime="0.00" timeLoss="30.71" rerouteNo="2" devices="tripinfo_104" vType="Cartype" speedFactor="0.89" vaporized=""/>
    <tripinfo id="105" depart="128.00" departLane="2NS1_0" departPos="5.10" departSpeed="0.00" departDelay="53.00" arrival="262.00" arrivalLane="2NS4_0" arrivalPos="196.00" arrivalSpeed="14.74" duration="134.00" routeLength="1196.97" waitingTime="23.00" waitingCount="1" stopTime="0.00" timeLoss="52.92" rerouteNo="3" devices="tripinfo_105" vType="Cartype" speedFactor="1.07" vaporized=""/>
    <tripinfo id="119" depart="168.00" departLane="2WO1_0" departPos="5.10" departSpeed="0.00" departDelay="80.00" arrival="263.00" arrivalLane="1NS4_0" arrivalPos="196.00" arrivalSpeed="12.60" duration="95.00" routeLength="886.92" waitingTime="1.00" waitingCount="1" stopTime="0.00" timeLoss="34.19" rerouteNo="2" devices="tripinfo_119" vType="Cartype" speedFactor="1.07" vaporized=""/>
    <tripinfo id="65" depart="107.00" departLane="2WO1_0" departPos="5.10" departSpeed="0.00" departDelay="61.00" arrival="264.00" arrivalLane="2WO4_0" arrivalPos="196.00" arrivalSpeed="12.11" duration="157.00" routeLength="1196.97" waitingTime="20.00" waitingCount="3" stopTime="0.00" timeLoss="59.02" rerouteNo="3" devices="tripinfo_65" vType="Cartype" speedFactor="0.88" vaporized=""/>
    <tripinfo id="107" depart="133.00" departLane="2NS1_0" departPos="5.10" departSpeed="0.00" departDelay="57.00" arrival="264.00" arrivalLane="3SN4_0" arrivalPos="196.00" arrivalSpeed="14.34" duration="131.00" routeLength="892.82" waitingTime="41.00" waitingCount="1" stopTime="0.00" timeLoss="67.02" rerouteNo="2" devices="tripinfo_107" vType="Cartype" speedFactor="1.03" vaporized=""/>