<?xml version="1.0" encoding="UTF-8"?>

<!-- generated on 01/19/20 09:51:45 by Eclipse SUMO Version 1.3.1
<configuration xmlns:xsi="http://www.w3.org/2001/XMLSchema-instance" xsi:noNamespaceSchemaLocation="http://sumo.dlr.de/xsd/sumoConfiguration.xsd">

    <input>
        <net-file value="Data/Cross_3_3.net.xml"/>
        <route-files value="Data/Cross12.rou.xml"/>
        <additional-files value="Data/rerouter.xml,Data/trafficLight.add.xml"/>
    </input>

    <output>
        <tripinfo-output value="tripinfo.xml"/>
    </output>

    <report>
        <log value="logfile.txt"/>
    </report>

    <traci_server>
        <remote-port value="50366"/>
    </traci_server>

</configuration>
-->

<tripinfos xmlns:xsi="http://www.w3.org/2001/XMLSchema-instance" xsi:noNamespaceSchemaLocation="http://sumo.dlr.de/xsd/tripinfo_file.xsd">
    <tripinfo id="0" depart="0.00" departLane="2NS1_0" departPos="5.10" departSpeed="0.00" departDelay="0.00" arrival="77.00" arrivalLane="1WO4_0" arrivalPos="196.00" arrivalSpeed="14.34" duration="77.00" routeLength="894.55" waitingTime="0.00" waitingCount="0" stopTime="0.00" timeLoss="15.00" rerouteNo="2" devices="tripinfo_0" vType="Cartype" speedFactor="1.06" vaporized=""/>
    <tripinfo id="4" depart="2.00" departLane="2OW1_0" departPos="5.10" departSpeed="0.00" departDelay="0.00" arrival="99.00" arrivalLane="3SN4_0" arrivalPos="196.00" arrivalSpeed="13.92" duration="97.00" routeLength="886.92" waitingTime="5.00" waitingCount="1" stopTime="0.00" timeLoss="33.63" rerouteNo="2" devices="tripinfo_4" vType="Cartype" speedFactor="1.03" vaporized=""/>
    <tripinfo id="6" depart="10.00" departLane="2NS1_0" departPos="5.10" departSpeed="0.00" departDelay="5.00" arrival="111.00" arrivalLane="1OW4_0" arrivalPos="196.00" arrivalSpeed="14.18" duration="101.00" routeLength="886.92" waitingTime="13.00" waitingCount="1" stopTime="0.00" timeLoss="39.02" rerouteNo="2" devices="tripinfo_6" vType="Cartype" speedFactor="1.05" vaporized=""/>
    <tripinfo id="14" depart="22.00" departLane="2SN1_0" departPos="5.10" departSpeed="0.00" departDelay="11.00" arrival="115.00" arrivalLane="3OW4_0" arrivalPos="196.00" arrivalSpeed="13.54" duration="93.00" routeLength="894.55" waitingTime="0.00" waitingCount="0" stopTime="0.00" timeLoss="26.72" rerouteNo="2" devices="tripinfo_14" vType="Cartype" speedFactor="0.99" vaporized=""/>
    <tripinfo id="7" depart="7.00" departLane="2OW1_0" departPos="5.10" departSpeed="0.00" departDelay="2.00" arrival="121.00" arrivalLane="3WO4_0" arrivalPos="196.00" arrivalSpeed="12.03" duration="114.00" routeLength="892.82" waitingTime="16.00" waitingCount="1" stopTime="0.00" timeLoss="39.64" rerouteNo="2" devices="tripinfo_7" vType="Cartype" speedFactor="0.89" vaporized=""/>
    <tripinfo id="2" depart="5.00" departLane="2NS1_0" departPos="5.10" departSpeed="0.00" departDelay="3.00" arrival="122.00" arrivalLane="1WO4_0" arrivalPos="196.00" arrivalSpeed="13.64" duration="117.00" routeLength="894.55" waitingTime="28.00" waitingCount="1" stopTime="0.00" timeLoss="52.36" rerouteNo="2" devices="tripinfo_2" vType="Cartype" speedFactor="1.01" vaporized=""/>
    <tripinfo id="24" depart="22.00" departLane="2OW1_0" departPos="5.10" departSpeed="0.00" departDelay="2.00" arrival="124.00" arrivalLane="3WO4_0" arrivalPos="196.00" arrivalSpeed="11.17" duration="102.00" routeLength="892.82" waitingTime="0.00" waitingCount="0" stopTime="0.00" timeLoss="22.30" rerouteNo="2" devices="tripinfo_24" vType="Cartype" speedFactor="0.83" vaporized=""/>
    <tripinfo id="31" depart="35.00" departLane="2NS1_0" departPos="5.10" departSpeed="0.00" departDelay="11.00" arrival="126.00" arrivalLane="1WO4_0" arrivalPos="196.00" arrivalSpeed="15.93" duration="91.00" routeLength="894.55" waitingTime="0.00" waitingCount="0" stopTime="0.00" timeLoss="33.74" rerouteNo="2" devices="tripinfo_31" vType="Cartype" speedFactor="1.15" vaporized=""/>
    <tripinfo id="12" depart="12.00" departLane="2SN1_0" departPos="5.10" departSpeed="0.00" departDelay="3.00" arrival="130.00" arrivalLane="2SN4_0" arrivalPos="196.00" arrivalSpeed="14.23" duration="118.00" routeLength="1196.97" waitingTime="6.00" waitingCount="1" stopTime="0.00" timeLoss="34.94" rerouteNo="3" devices="tripinfo_12" vType="Cartype" speedFactor="1.05" vaporized=""/>
    <tripinfo id="11" depart="15.00" departLane="2WO1_0" departPos="5.10" departSpeed="0.00" departDelay="8.00" arrival="136.00" arrivalLane="1SN4_0" arrivalPos="196.00" arrivalSpeed="13.98" duration="121.00" routeLength="894.55" waitingTime="26.00" waitingCount="1" stopTime="0.00" timeLoss="57.12" rerouteNo="2" devices="tripinfo_11" vType="Cartype" speedFactor="1.03" vaporized=""/>
    <tripinfo id="22" depart="20.00" departLane="2WO1_0" departPos="5.10" departSpeed="0.00" departDelay="1.00" arrival="139.00" arrivalLane="1NS4_0" arrivalPos="196.00" arrivalSpeed="13.28" duration="119.00" routeLength="886.92" waitingTime="16.00" waitingCount="2" stopTime="0.00" timeLoss="52.14" rerouteNo="2" devices="tripinfo_22" vType="Cartype" speedFactor="0.98" vaporized=""/>
    <tripinfo id="23" depart="25.00" departLane="2WO1_0" departPos="5.10" departSpeed="0.00" departDelay="5.00" arrival="140.00" arrivalLane="1SN4_0" arrivalPos="196.00" arrivalSpeed="12.29" duration="115.00" routeLength="894.55" waitingTime="4.00" waitingCount="2" stopTime="0.00" timeLoss="41.73" rerouteNo="2" devices="tripinfo_23" vType="Cartype" speedFactor="0.89" vaporized=""/>
    <tripinfo id="32" depart="40.00" departLane="2WO1_0" departPos="5.10" departSpeed="0.00" departDelay="16.00" arrival="141.00" arrivalLane="1NS4_0" arrivalPos="196.00" arrivalSpeed="13.96" duration="101.00" routeLength="886.92" waitingTime="1.00" waitingCount="1" stopTime="0.00" timeLoss="35.71" rerouteNo="2" devices="tripinfo_32" vType="Cartype" speedFactor="1.01" vaporized=""/>
    <tripinfo id="33" depart="45.00" departLane="2WO1_0" departPos="5.10" departSpeed="0.00" departDelay="20.00" arrival="142.00" arrivalLane="1NS4_0" arrivalPos="196.00" arrivalSpeed="13.94" duration="97.00" routeLength="886.92" waitingTime="1.00" waitingCount="1" stopTime="0.00" timeLoss="41.49" rerouteNo="2" devices="tripinfo_33" vType="Cartype" speedFactor="1.17" vaporized=""/>
    <tripinfo id="8" depart="7.00" departLane="2SN1_0" departPos="5.10" departSpeed="0.00" departDelay="1.00" arrival="144.00" arrivalLane="3WO4_0" arrivalPos="196.00" arrivalSpeed="12.64" duration="137.00" routeLength="886.92" waitingTime="35.00" waitingCount="2" stopTime="0.00" timeLoss="67.88" rerouteNo="2" devices="tripinfo_8" vType="Cartype" speedFactor="0.94" vaporized=""/>
    <tripinfo id="19" depart="17.00" departLane="2OW1_0" departPos="5.10" departSpeed="0.00" departDelay="0.00" arrival="147.00" arrivalLane="3SN4_0" arrivalPos="196.00" arrivalSpeed="15.77" duration="130.00" routeLength="886.92" waitingTime="32.00" waitingCount="2" stopTime="0.00" timeLoss="73.92" rerouteNo="2" devices="tripinfo_19" vType="Cartype" speedFactor="1.16" vaporized=""/>
    <tripinfo id="35" depart="64.00" departLane="2SN1_0" departPos="5.10" departSpeed="0.00" departDelay="38.00" arrival="155.00" arrivalLane="3OW4_0" arrivalPos="196.00" arrivalSpeed="13.81" duration="91.00" routeLength="894.55" waitingTime="2.00" waitingCount="1" stopTime="0.00" timeLoss="27.10" rerouteNo="2" devices="tripinfo_35" vType="Cartype" speedFactor="1.02" vaporized=""/>
    <tripinfo id="25" depart="30.00" departLane="2NS1_0" departPos="5.10" departSpeed="0.00" departDelay="8.00" arrival="161.00" arrivalLane="1SN4_0" arrivalPos="196.00" arrivalSpeed="11.99" duration="131.00" routeLength="877.56" waitingTime="28.00" waitingCount="1" stopTime="0.00" timeLoss="56.09" rerouteNo="2" devices="tripinfo_25" vType="Cartype" speedFactor="0.87" vaporized=""/>
    <tripinfo id="45" depart="51.00" departLane="2NS1_0" departPos="5.10" departSpeed="0.00" departDelay="19.00" arrival="163.00" arrivalLane="1SN4_0" arrivalPos="196.00" arrivalSpeed="13.55" duration="112.00" routeLength="877.56" waitingTime="22.00" waitingCount="1" stopTime="0.00" timeLoss="52.17" rerouteNo="2" devices="tripinfo_45" vType="Cartype" speedFactor="1.09" vaporized=""/>
    <tripinfo id="50" depart="61.00" departLane="2NS1_0" departPos="5.10" departSpeed="0.00" departDelay="23.00" arrival="168.00" arrivalLane="1WO4_0" arrivalPos="196.00" arrivalSpeed="11.50" duration="107.00" routeLength="894.55" waitingTime="10.00" waitingCount="1" stopTime="0.00" timeLoss="30.70" rerouteNo="2" devices="tripinfo_50" vType="Cartype" speedFactor="0.85" vaporized=""/>
    <tripinfo id="62" depart="52.00" departLane="2OW1_0" departPos="5.10" departSpeed="0.00" departDelay="7.00" arrival="169.00" arrivalLane="3WO4_0" arrivalPos="196.00" arrivalSpeed="13.89" duration="117.00" routeLength="892.82" waitingTime="25.00" waitingCount="1" stopTime="0.00" timeLoss="52.29" rerouteNo="2" devices="tripinfo_62" vType="Cartype" speedFactor="1.02" vaporized=""/>
    <tripinfo id="73" depart="62.00" departLane="2OW1_0" departPos="5.10" departSpeed="0.00" departDelay="8.00" arrival="171.00" arrivalLane="3NS4_0" arrivalPos="196.00" arrivalSpeed="14.50" duration="109.00" routeLength="894.55" waitingTime="18.00" waitingCount="1" stopTime="0.00" timeLoss="46.74" rerouteNo="2" devices="tripinfo_73" vType="Cartype" speedFactor="1.06" vaporized=""/>
    <tripinfo id="1" depart="0.00" departLane="2WO1_0" departPos="5.10" departSpeed="0.00" departDelay="0.00" arrival="174.00" arrivalLane="3NS4_0" arrivalPos="196.00" arrivalSpeed="12.82" duration="174.00" routeLength="1488.30" waitingTime="18.00" waitingCount="1" stopTime="0.00" timeLoss="58.76" rerouteNo="4" devices="tripinfo_1" vType="Cartype" speedFactor="0.94" vaporized=""/>
    <tripinfo id="43" depart="37.00" departLane="2OW1_0" departPos="5.10" departSpeed="0.00" departDelay="7.00" arrival="183.00" arrivalLane="3OW3_0" arrivalPos="92.00" arrivalSpeed="14.37" duration="146.00" routeLength="1081.88" waitingTime="17.00" waitingCount="2" stopTime="0.00" timeLoss="68.67" rerouteNo="3" devices="tripinfo_43" vType="Cartype" speedFactor="1.04" vaporized=""/>
    <tripinfo id="27" depart="30.00" departLane="2WO1_0" departPos="5.10" departSpeed="0.00" departDelay="8.00" arrival="186.00" arrivalLane="2NS4_0" arrivalPos="196.00" arrivalSpeed="13.01" duration="156.00" routeLength="1187.61" waitingTime="13.00" waitingCount="3" stopTime="0.00" timeLoss="64.73" rerouteNo="3" devices="tripinfo_27" vType="Cartype" speedFactor="0.95" vaporized=""/>
    <tripinfo id="41" depart="60.00" departLane="2WO1_0" departPos="5.10" departSpeed="0.00" departDelay="31.00" arrival="186.00" arrivalLane="1NS4_0" arrivalPos="196.00" arrivalSpeed="13.24" duration="126.00" routeLength="886.92" waitingTime="23.00" waitingCount="2" stopTime="0.00" timeLoss="58.46" rerouteNo="2" devices="tripinfo_41" vType="Cartype" speedFactor="0.96" vaporized=""/>
    <tripinfo id="42" depart="65.00" departLane="2WO1_0" departPos="5.10" departSpeed="0.00" departDelay="35.00" arrival="188.00" arrivalLane="1NS4_0" arrivalPos="196.00" arrivalSpeed="14.98" duration="123.00" routeLength="886.92" waitingTime="19.00" waitingCount="2" stopTime="0.00" timeLoss="63.91" rerouteNo="2" devices="tripinfo_42" vType="Cartype" speedFactor="1.09" vaporized=""/>
    <tripinfo id="36" depart="32.00" departLane="2OW1_0" departPos="5.10" departSpeed="0.00" departDelay="6.00" arrival="189.00" arrivalLane="2NS4_0" arrivalPos="196.00" arrivalSpeed="13.48" duration="157.00" routeLength="1195.24" waitingTime="18.00" waitingCount="2" stopTime="0.00" timeLoss="67.33" rerouteNo="3" devices="tripinfo_36" vType="Cartype" speedFactor="0.97" vaporized=""/>
    <tripinfo id="37" depart="50.00" departLane="2WO1_0" departPos="5.10" departSpeed="0.00" departDelay="23.00" arrival="189.00" arrivalLane="2WO4_0" arrivalPos="196.00" arrivalSpeed="16.29" duration="139.00" routeLength="1196.97" waitingTime="13.00" waitingCount="2" stopTime="0.00" timeLoss="65.50" rerouteNo="3" devices="tripinfo_37" vType="Cartype" speedFactor="1.18" vaporized=""/>
    <tripinfo id="10" depart="10.00" departLane="2WO1_0" departPos="5.10" departSpeed="0.00" departDelay="3.00" arrival="190.00" arrivalLane="2SN4_0" arrivalPos="196.00" arrivalSpeed="14.88" duration="180.00" routeLength="1195.24" waitingTime="36.00" waitingCount="4" stopTime="0.00" timeLoss="100.12" rerouteNo="3" devices="tripinfo_10" vType="Cartype" speedFactor="1.09" vaporized=""/>
    <tripinfo id="46" depart="76.00" departLane="2WO1_0" departPos="5.10" departSpeed="0.00" departDelay="43.00" arrival="191.00" arrivalLane="1NS4_0" arrivalPos="196.00" arrivalSpeed="13.79" duration="115.00" routeLength="886.92" waitingTime="11.00" waitingCount="2" stopTime="0.00" timeLoss="49.97" rerouteNo="2" devices="tripinfo_46" vType="Cartype" speedFactor="1.00" vaporized=""/>
    <tripinfo id="60" depart="92.00" departLane="2WO1_0" departPos="5.10" departSpeed="0.00" departDelay="48.00" arrival="191.00" arrivalLane="3OW4_0" arrivalPos="196.00" arrivalSpeed="14.89" duration="99.00" routeLength="877.56" waitingTime="2.00" waitingCount="1" stopTime="0.00" timeLoss="39.07" rerouteNo="2" devices="tripinfo_60" vType="Cartype" speedFactor="1.08" vaporized=""/>
    <tripinfo id="20" depart="25.00" departLane="2NS1_0" departPos="5.10" departSpeed="0.00" departDelay="7.00" arrival="193.00" arrivalLane="3WO4_0" arrivalPos="196.00" arrivalSpeed="14.09" duration="168.00" routeLength="1495.93" waitingTime="9.00" waitingCount="3" stopTime="0.00" timeLoss="60.77" rerouteNo="4" devices="tripinfo_20" vType="Cartype" speedFactor="1.02" vaporized=""/>
    <tripinfo id="52" depart="42.00" departLane="2OW1_0" departPos="5.10" departSpeed="0.00" departDelay="2.00" arrival="193.00" arrivalLane="2OW4_0" arrivalPos="196.00" arrivalSpeed="13.74" duration="151.00" routeLength="1197.26" waitingTime="25.00" waitingCount="2" stopTime="0.00" timeLoss="65.50" rerouteNo="3" devices="tripinfo_52" vType="Cartype" speedFactor="1.02" vaporized=""/>
    <tripinfo id="26" depart="48.00" departLane="2SN1_0" departPos="5.10" departSpeed="0.00" departDelay="26.00" arrival="194.00" arrivalLane="2SN4_0" arrivalPos="196.00" arrivalSpeed="12.52" duration="146.00" routeLength="1196.97" waitingTime="19.00" waitingCount="1" stopTime="0.00" timeLoss="51.99" rerouteNo="3" devices="tripinfo_26" vType="Cartype" speedFactor="0.92" vaporized=""/>
    <tripinfo id="53" depart="66.00" departLane="2NS1_0" departPos="5.10" departSpeed="0.00" departDelay="25.00" arrival="198.00" arrivalLane="2WO4_0" arrivalPos="196.00" arrivalSpeed="15.12" duration="132.00" routeLength="1195.24" waitingTime="10.00" waitingCount="1" stopTime="0.00" timeLoss="52.39" rerouteNo="3" devices="tripinfo_53" vType="Cartype" speedFactor="1.10" vaporized=""/>
    <tripinfo id="75" depart="67.00" departLane="2OW1_0" departPos="5.10" departSpeed="0.00" departDelay="12.00" arrival="198.00" arrivalLane="3SN4_0" arrivalPos="196.00" arrivalSpeed="13.48" duration="131.00" routeLength="886.92" waitingTime="25.00" waitingCount="2" stopTime="0.00" timeLoss="64.42" rerouteNo="2" devices="tripinfo_75" vType="Cartype" speedFactor="0.98" vaporized=""/>
    <tripinfo id="83" depart="82.00" departLane="2OW1_0" departPos="5.10" departSpeed="0.00" departDelay="16.00" arrival="199.00" arrivalLane="3SN4_0" arrivalPos="196.00" arrivalSpeed="13.41" duration="117.00" routeLength="886.92" waitingTime="17.00" waitingCount="1" stopTime="0.00" timeLoss="50.51" rerouteNo="2" devices="tripinfo_83" vType="Cartype" speedFactor="0.97" vaporized=""/>
    <tripinfo id="93" depart="97.00" departLane="2OW1_0" departPos="5.10" departSpeed="0.00" departDelay="24.00" arrival="202.00" arrivalLane="3SN4_0" arrivalPos="196.00" arrivalSpeed="12.60" duration="105.00" routeLength="886.92" waitingTime="8.00" waitingCount="1" stopTime="0.00" timeLoss="34.13" rerouteNo="2" devices="tripinfo_93" vType="Cartype" speedFactor="0.92" vaporized=""/>
    <tripinfo id="15" depart="20.00" departLane="2NS1_0" departPos="5.10" departSpeed="0.00" departDelay="8.00" arrival="204.00" arrivalLane="3SN4_0" arrivalPos="196.00" arrivalSpeed="12.78" duration="184.00" routeLength="1494.20" waitingTime="7.00" waitingCount="3" stopTime="0.00" timeLoss="65.26" rerouteNo="4" devices="tripinfo_15" vType="Cartype" speedFactor="0.93" vaporized=""/>
    <tripinfo id="68" depart="99.00" departLane="2SN1_0" departPos="5.10" departSpeed="0.00" departDelay="51.00" arrival="209.00" arrivalLane="3OW4_0" arrivalPos="196.00" arrivalSpeed="14.31" duration="110.00" routeLength="894.55" waitingTime="21.00" waitingCount="1" stopTime="0.00" timeLoss="47.27" rerouteNo="2" devices="tripinfo_68" vType="Cartype" speedFactor="1.04" vaporized=""/>
    <tripinfo id="17" depart="33.00" departLane="2SN1_0" departPos="5.10" departSpeed="0.00" departDelay="17.00" arrival="211.00" arrivalLane="1OW4_0" arrivalPos="196.00" arrivalSpeed="13.06" duration="178.00" routeLength="1495.93" waitingTime="26.00" waitingCount="2" stopTime="0.00" timeLoss="61.82" rerouteNo="4" devices="tripinfo_17" vType="Cartype" speedFactor="0.94" vaporized=""/>
    <tripinfo id="69" depart="104.00" departLane="2SN1_0" departPos="5.10" departSpeed="0.00" departDelay="54.00" arrival="212.00" arrivalLane="3OW4_0" arrivalPos="196.00" arrivalSpeed="13.88" duration="108.00" routeLength="894.55" waitingTime="18.00" waitingCount="1" stopTime="0.00" timeLoss="43.68" rerouteNo="2" devices="tripinfo_69" vType="Cartype" speedFactor="1.02" vaporized=""/>
    <tripinfo id="87" depart="108.00" departLane="2NS1_0" departPos="5.10" departSpeed="0.00" departDelay="38.00" arrival="213.00" arrivalLane="1SN4_0" arrivalPos="196.00" arrivalSpeed="14.41" duration="105.00" routeLength="877.56" waitingTime="15.00" waitingCount="1" stopTime="0.00" timeLoss="43.10" rerouteNo="2" devices="tripinfo_87" vType="Cartype" speedFactor="1.04" vaporized=""/>
    <tripinfo id="28" depart="27.00" departLane="2OW1_0" departPos="5.10" departSpeed="0.00" departDelay="5.00" arrival="214.00" arrivalLane="3SN4_0" arrivalPos="196.00" arrivalSpeed="15.58" duration="187.00" routeLength="1477.21" waitingTime="29.00" waitingCount="2" stopTime="0.00" timeLoss="91.23" rerouteNo="4" devices="tripinfo_28" vType="Cartype" speedFactor="1.13" vaporized=""/>
    <tripinfo id="9" depart="15.00" departLane="2NS1_0" departPos="5.10" departSpeed="0.00" departDelay="8.00" arrival="220.00" arrivalLane="3NS4_0" arrivalPos="196.00" arrivalSpeed="11.75" duration="205.00" routeLength="1486.57" waitingTime="26.00" waitingCount="2" stopTime="0.00" timeLoss="77.83" rerouteNo="4" devices="tripinfo_9" vType="Cartype" speedFactor="0.86" vaporized=""/>
    <tripinfo id="48" depart="69.00" departLane="2SN1_0" departPos="5.10" departSpeed="0.00" departDelay="33.00" arrival="221.00" arrivalLane="1WO4_0" arrivalPos="196.00" arrivalSpeed="11.90" duration="152.00" routeLength="1488.30" waitingTime="1.00" waitingCount="1" stopTime="0.00" timeLoss="28.81" rerouteNo="4" devices="tripinfo_48" vType="Cartype" speedFactor="0.88" vaporized=""/>
    <tripinfo id="79" depart="77.00" departLane="2OW1_0" departPos="5.10" departSpeed="0.00" departDelay="17.00" arrival="221.00" arrivalLane="2NS4_0" arrivalPos="196.00" arrivalSpeed="15.01" duration="144.00" routeLength="1184.15" waitingTime="15.00" waitingCount="2" stopTime="0.00" timeLoss="63.39" rerouteNo="3" devices="tripinfo_79" vType="Cartype" speedFactor="1.09" vaporized=""/>
    <tripinfo id="100" depart="113.00" departLane="2NS1_0" departPos="5.10" departSpeed="0.00" departDelay="35.00" arrival="224.00" arrivalLane="1WO4_0" arrivalPos="196.00" arrivalSpeed="14.53" duration="111.00" routeLength="894.55" waitingTime="16.00" waitingCount="2" stopTime="0.00" timeLoss="49.20" rerouteNo="2" devices="tripinfo_100" vType="Cartype" speedFactor="1.07" vaporized=""/>
    <tripinfo id="18" depart="38.00" departLane="2SN1_0" departPos="5.10" departSpeed="0.00" departDelay="21.00" arrival="237.00" arrivalLane="1NS4_0" arrivalPos="196.00" arrivalSpeed="12.91" duration="199.00" routeLength="1494.49" waitingTime="42.00" waitingCount="2" stopTime="0.00" timeLoss="82.03" rerouteNo="4" devices="tripinfo_18" vType="Cartype" speedFactor="0.94" vaporized=""/>
    <tripinfo id="76" depart="117.00" departLane="2WO1_0" departPos="5.10" departSpeed="0.00" departDelay="60.00" arrival="237.00" arrivalLane="3OW4_0" arrivalPos="196.00" arrivalSpeed="14.08" duration="120.00" routeLength="877.56" waitingTime="18.00" waitingCount="2" stopTime="0.00" timeLoss="57.45" rerouteNo="2" devices="tripinfo_76" vType="Cartype" speedFactor="1.03" vaporized=""/>
    <tripinfo id="3" depart="2.00" departLane="2SN1_0" departPos="5.10" departSpeed="0.00" departDelay="0.00" arrival="238.00" arrivalLane="1SN4_0" arrivalPos="196.00" arrivalSpeed="14.93" duration="236.00" routeLength="1486.86" waitingTime="74.00" waitingCount="3" stopTime="0.00" timeLoss="135.34" rerouteNo="4" devices="tripinfo_3" vType="Cartype" speedFactor="1.08" vaporized=""/>
    <tripinfo id="44" depart="70.00" departLane="2WO1_0" departPos="5.10" departSpeed="0.00" departDelay="39.00" arrival="239.00" arrivalLane="2WO4_0" arrivalPos="196.00" arrivalSpeed="14.27" duration="169.00" routeLength="1196.97" waitingTime="30.00" waitingCount="3" stopTime="0.00" timeLoss="85.60" rerouteNo="3" devices="tripinfo_44" vType="Cartype" speedFactor="1.04" vaporized=""/>
    <tripinfo id="59" depart="87.00" departLane="2WO1_0" departPos="5.10" departSpeed="0.00" departDelay="43.00" arrival="239.00" arrivalLane="2SN4_0" arrivalPos="196.00" arrivalSpeed="13.43" duration="152.00" routeLength="1195.24" waitingTime="6.00" waitingCount="3" stopTime="0.00" timeLoss="61.68" rerouteNo="3" devices="tripinfo_59" vType="Cartype" speedFactor="0.97" vaporized=""/>
    <tripinfo id="80" depart="127.00" departLane="2WO1_0" departPos="5.10" departSpeed="0.00" departDelay="66.00" arrival="239.00" arrivalLane="1NS4_0" arrivalPos="196.00" arrivalSpeed="14.28" duration="112.00" routeLength="886.92" waitingTime="10.00" waitingCount="2" stopTime="0.00" timeLoss="49.65" rerouteNo="2" devices="tripinfo_80" vType="Cartype" speedFactor="1.03" vaporized=""/>
    <tripinfo id="64" depart="97.00" departLane="2WO1_0" departPos="5.10" departSpeed="0.00" departDelay="51.00" arrival="241.00" arrivalLane="2SN4_0" arrivalPos="196.00" arrivalSpeed="13.01" duration="144.00" routeLength="1195.24" waitingTime="4.00" waitingCount="1" stopTime="0.00" timeLoss="50.84" rerouteNo="3" devices="tripinfo_64" vType="Cartype" speedFactor="0.94" vaporized=""/>
    <tripinfo id="57" depart="84.00" departLane="2SN1_0" departPos="5.10" departSpeed="0.00" departDelay="41.00" arrival="242.00" arrivalLane="2SN4_0" arrivalPos="196.00" arrivalSpeed="13.56" duration="158.00" routeLength="1196.97" waitingTime="33.00" waitingCount="1" stopTime="0.00" timeLoss="82.43" rerouteNo="3" devices="tripinfo_57" vType="Cartype" speedFactor="1.14" vaporized=""/>
    <tripinfo id="63" depart="94.00" departLane="2SN1_0" departPos="5.10" departSpeed="0.00" departDelay="48.00" arrival="242.00" arrivalLane="3WO4_0" arrivalPos="196.00" arrivalSpeed="13.60" duration="148.00" routeLength="886.92" waitingTime="46.00" waitingCount="2" stopTime="0.00" timeLoss="81.75" rerouteNo="2" devices="tripinfo_63" vType="Cartype" speedFactor="0.99" vaporized=""/>
    <tripinfo id="74" depart="87.00" departLane="2NS1_0" departPos="5.10" departSpeed="0.00" departDelay="32.00" arrival="242.00" arrivalLane="2NS4_0" arrivalPos="196.00" arrivalSpeed="13.15" duration="155.00" routeLength="1196.97" waitingTime="31.00" waitingCount="1" stopTime="0.00" timeLoss="64.16" rerouteNo="3" devices="tripinfo_74" vType="Cartype" speedFactor="0.96" vaporized=""/>
    <tripinfo id="66" depart="57.00" departLane="2OW1_0" departPos="5.10" departSpeed="0.00" departDelay="10.00" arrival="243.00" arrivalLane="2OW4_0" arrivalPos="196.00" arrivalSpeed="12.50" duration="186.00" routeLength="1197.26" waitingTime="44.00" waitingCount="3" stopTime="0.00" timeLoss="90.26" rerouteNo="3" devices="tripinfo_66" vType="Cartype" speedFactor="0.91" vaporized=""/>
    <tripinfo id="71" depart="109.00" departLane="2SN1_0" departPos="5.10" departSpeed="0.00" departDelay="57.00" arrival="244.00" arrivalLane="2SN4_0" arrivalPos="196.00" arrivalSpeed="13.47" duration="135.00" routeLength="1196.97" waitingTime="8.00" waitingCount="1" stopTime="0.00" timeLoss="45.85" rerouteNo="3" devices="tripinfo_71" vType="Cartype" speedFactor="0.97" vaporized=""/>
    <tripinfo id="77" depart="72.00" departLane="2OW1_0" departPos="5.10" departSpeed="0.00" departDelay="15.00" arrival="244.00" arrivalLane="2OW4_0" arrivalPos="196.00" arrivalSpeed="12.92" duration="172.00" routeLength="1197.26" waitingTime="30.00" waitingCount="3" stopTime="0.00" timeLoss="84.17" rerouteNo="3" devices="tripinfo_77" vType="Cartype" speedFactor="0.98" vaporized=""/>
    <tripinfo id="110" depart="129.00" departLane="2SN1_0" departPos="5.10" departSpeed="0.00" departDelay="44.00" arrival="245.00" arrivalLane="3WO4_0" arrivalPos="196.00" arrivalSpeed="12.66" duration="116.00" routeLength="886.92" waitingTime="16.00" waitingCount="1" stopTime="0.00" timeLoss="46.07" rerouteNo="2" devices="tripinfo_110" vType="Cartype" speedFactor="0.93" vaporized=""/>
    <tripinfo id="99" depart="124.00" departLane="2SN1_0" departPos="5.10" departSpeed="0.00" departDelay="47.00" arrival="246.00" arrivalLane="2OW4_0" arrivalPos="196.00" arrivalSpeed="15.19" duration="122.00" routeLength="1195.53" waitingTime="2.00" waitingCount="1" stopTime="0.00" timeLoss="42.44" rerouteNo="3" devices="tripinfo_99" vType="Cartype" speedFactor="1.10" vaporized=""/>
    <tripinfo id="13" depart="17.00" departLane="2SN1_0" departPos="5.10" departSpeed="0.00" departDelay="7.00" arrival="247.00" arrivalLane="3SN4_0" arrivalPos="196.00" arrivalSpeed="15.51" duration="230.00" routeLength="1486.57" waitingTime="61.00" waitingCount="4" stopTime="0.00" timeLoss="133.04" rerouteNo="4" devices="tripinfo_13" vType="Cartype" speedFactor="1.12" vaporized=""/>
    <tripinfo id="38" depart="55.00" departLane="2WO1_0" departPos="5.10" departSpeed="0.00" departDelay="28.00" arrival="247.00" arrivalLane="3WO4_0" arrivalPos="196.00" arrivalSpeed="13.95" duration="192.00" routeLength="1486.57" waitingTime="37.00" waitingCount="3" stopTime="0.00" timeLoss="93.49" rerouteNo="4" devices="tripinfo_38" vType="Cartype" speedFactor="1.10" vaporized=""/>
    <tripinfo id="39" depart="41.00" departLane="2NS1_0" departPos="5.10" departSpeed="0.00" departDelay="13.00" arrival="247.00" arrivalLane="1WO4_0" arrivalPos="196.00" arrivalSpeed="12.41" duration="206.00" routeLength="1484.84" waitingTime="33.00" waitingCount="1" stopTime="0.00" timeLoss="84.51" rerouteNo="4" devices="tripinfo_39" vType="Cartype" speedFactor="0.90" vaporized=""/>
    <tripinfo id="103" depart="107.00" departLane="2OW1_0" departPos="5.10" departSpeed="0.00" departDelay="26.00" arrival="250.00" arrivalLane="3SN4_0" arrivalPos="196.00" arrivalSpeed="12.97" duration="143.00" routeLength="886.92" waitingTime="40.00" waitingCount="2" stopTime="0.00" timeLoss="75.00" rerouteNo="2" devices="tripinfo_103" vType="Cartype" speedFactor="0.95" vaporized=""/>
    <tripinfo id="86" depart="103.00" departLane="2NS1_0" departPos="5.10" departSpeed="0.00" departDelay="34.00" arrival="251.00" arrivalLane="2WO4_0" arrivalPos="196.00" arrivalSpeed="13.58" duration="148.00" routeLength="1195.24" waitingTime="25.00" waitingCount="2" stopTime="0.00" timeLoss="60.55" rerouteNo="3" devices="tripinfo_86" vType="Cartype" speedFactor="1.00" vaporized=""/>
    <tripinfo id="106" depart="124.00" departLane="2NS1_0" departPos="5.10" departSpeed="0.00" departDelay="40.00" arrival="252.00" arrivalLane="2WO4_0" arrivalPos="196.00" arrivalSpeed="13.77" duration="128.00" routeLength="1195.24" waitingTime="2.00" waitingCount="1" stopTime="0.00" timeLoss="42.51" rerouteNo="3" devices="tripinfo_106" vType="Cartype" speedFactor="1.01" vaporized=""/>
    <tripinfo id="115" depart="129.00" departLane="2OW1_0" departPos="5.10" departSpeed="0.00" departDelay="40.00" arrival="253.00" arrivalLane="3SN4_0" arrivalPos="196.00" arrivalSpeed="12.59" duration="124.00" routeLength="886.92" waitingTime="18.00" waitingCount="1" stopTime="0.00" timeLoss="53.55" rerouteNo="2" devices="tripinfo_115" vType="Cartype" speedFactor="0.92" vaporized=""/>
    <tripinfo id="113" depart="134.00" departLane="2NS1_0" departPos="5.10" departSpeed="0.00" departDelay="45.00" arrival="257.00" arrivalLane="1OW4_0" arrivalPos="196.00" arrivalSpeed="13.95" duration="123.00" routeLength="886.92" waitingTime="24.00" waitingCount="1" stopTime="0.00" timeLoss="58.42" rerouteNo="2" devices="tripinfo_113" vType="Cartype" speedFactor="1.01" vaporized=""/>
    <tripinfo id="90" depart="87.00" departLane="2OW1_0" departPos="5.10" departSpeed="0.00" departDelay="16.00" arrival="259.00" arrivalLane="1OW4_0" arrivalPos="196.00" arrivalSpeed="14.10" duration="172.00" routeLength="1486.57" waitingTime="21.00" waitingCount="2" stopTime="0.00" timeLoss="65.10" rerouteNo="4" devices="tripinfo_90" vType="Cartype" speedFactor="1.02" vaporized=""/>
    <tripinfo id="55" depart="47.00" departLane="2OW1_0" departPos="5.10" departSpeed="0.00" departDelay="5.00" arrival="261.00" arrivalLane="3OW4_0" arrivalPos="196.00" arrivalSpeed="13.54" duration="214.00" routeLength="1486.57" waitingTime="52.00" waitingCount="3" stopTime="0.00" timeLoss="104.92" rerouteNo="4" devices="tripinfo_55" vType="Cartype" speedFactor="1.00" vaporized=""/>
    <tripinfo id="124" depart="159.00" departLane="2SN1_0" departPos="5.10" departSpeed="0.00" departDelay="65.00" arrival="263.00" arrivalLane="3OW4_0" arrivalPos="196.00" arrivalSpeed="14.51" duration="104.00" routeLength="894.55" waitingTime="5.00" waitingCount="1" stopTime="0.00" timeLoss="42.03" rerouteNo="2" devices="tripinfo_124" vType="Cartype" speedFactor="1.06" vaporized=""/>