<?xml version="1.0" encoding="UTF-8"?>

<!-- generated on 02/26/20 20:27:05 by Eclipse SUMO Version 1.3.1
<configuration xmlns:xsi="http://www.w3.org/2001/XMLSchema-instance" xsi:noNamespaceSchemaLocation="http://sumo.dlr.de/xsd/sumoConfiguration.xsd">

    <input>
        <net-file value="Data/Cross_3_3.net.xml"/>
        <route-files value="Data/Cross12.rou.xml"/>
        <additional-files value="Data/rerouter.xml,Data/trafficLight.add.xml"/>
    </input>

    <output>
        <tripinfo-output value="tripinfo.xml"/>
    </output>

    <report>
        <log value="logfile.txt"/>
    </report>

    <traci_server>
        <remote-port value="31918"/>
    </traci_server>

</configuration>
-->

<tripinfos xmlns:xsi="http://www.w3.org/2001/XMLSchema-instance" xsi:noNamespaceSchemaLocation="http://sumo.dlr.de/xsd/tripinfo_file.xsd">
    <tripinfo id="4" depart="2.00" departLane="2WO1_0" departPos="5.10" departSpeed="0.00" departDelay="0.00" arrival="80.00" arrivalLane="1NS4_0" arrivalPos="196.00" arrivalSpeed="14.18" duration="78.00" routeLength="886.92" waitingTime="0.00" waitingCount="0" stopTime="0.00" timeLoss="14.67" rerouteNo="2" devices="tripinfo_4" vType="Cartype" speedFactor="1.03" vaporized=""/>
    <tripinfo id="15" depart="12.00" departLane="2NS1_0" departPos="5.10" departSpeed="0.00" departDelay="2.00" arrival="98.00" arrivalLane="1WO4_0" arrivalPos="196.00" arrivalSpeed="12.71" duration="86.00" routeLength="894.55" waitingTime="0.00" waitingCount="0" stopTime="0.00" timeLoss="15.77" rerouteNo="2" devices="tripinfo_15" vType="Cartype" speedFactor="0.93" vaporized=""/>
    <tripinfo id="28" depart="29.00" departLane="2WO1_0" departPos="5.10" departSpeed="0.00" departDelay="12.00" arrival="113.00" arrivalLane="1SN4_0" arrivalPos="196.00" arrivalSpeed="15.54" duration="84.00" routeLength="894.55" waitingTime="0.00" waitingCount="0" stopTime="0.00" timeLoss="25.98" rerouteNo="2" devices="tripinfo_28" vType="Cartype" speedFactor="1.13" vaporized=""/>
    <tripinfo id="45" depart="46.00" departLane="2SN1_0" departPos="5.10" departSpeed="0.00" departDelay="18.00" arrival="122.00" arrivalLane="3WO4_0" arrivalPos="196.00" arrivalSpeed="14.95" duration="76.00" routeLength="886.92" waitingTime="1.00" waitingCount="1" stopTime="0.00" timeLoss="15.76" rerouteNo="2" devices="tripinfo_45" vType="Cartype" speedFactor="1.09" vaporized=""/>
    <tripinfo id="13" depart="26.00" departLane="2OW1_0" departPos="5.10" departSpeed="0.00" departDelay="18.00" arrival="131.00" arrivalLane="3SN4_0" arrivalPos="196.00" arrivalSpeed="15.38" duration="105.00" routeLength="886.92" waitingTime="16.00" waitingCount="1" stopTime="0.00" timeLoss="47.60" rerouteNo="2" devices="tripinfo_13" vType="Cartype" speedFactor="1.12" vaporized=""/>
    <tripinfo id="14" depart="31.00" departLane="2OW1_0" departPos="5.10" departSpeed="0.00" departDelay="22.00" arrival="132.00" arrivalLane="2SN4_0" arrivalPos="196.00" arrivalSpeed="13.50" duration="101.00" routeLength="1187.61" waitingTime="0.00" waitingCount="0" stopTime="0.00" timeLoss="14.14" rerouteNo="3" devices="tripinfo_14" vType="Cartype" speedFactor="0.99" vaporized=""/>
    <tripinfo id="39" depart="50.00" departLane="2WO1_0" departPos="5.10" departSpeed="0.00" departDelay="28.00" arrival="136.00" arrivalLane="1SN4_0" arrivalPos="196.00" arrivalSpeed="12.37" duration="86.00" routeLength="894.55" waitingTime="0.00" waitingCount="0" stopTime="0.00" timeLoss="13.63" rerouteNo="2" devices="tripinfo_39" vType="Cartype" speedFactor="0.90" vaporized=""/>
    <tripinfo id="27" depart="24.00" departLane="2WO1_0" departPos="5.10" departSpeed="0.00" departDelay="8.00" arrival="155.00" arrivalLane="1NS4_0" arrivalPos="196.00" arrivalSpeed="12.89" duration="131.00" routeLength="886.92" waitingTime="35.00" waitingCount="1" stopTime="0.00" timeLoss="62.37" rerouteNo="2" devices="tripinfo_27" vType="Cartype" speedFactor="0.95" vaporized=""/>
    <tripinfo id="56" depart="65.00" departLane="2WO1_0" departPos="5.10" departSpeed="0.00" departDelay="30.00" arrival="155.00" arrivalLane="1OW4_0" arrivalPos="196.00" arrivalSpeed="12.28" duration="90.00" routeLength="892.82" waitingTime="0.00" waitingCount="0" stopTime="0.00" timeLoss="16.84" rerouteNo="2" devices="tripinfo_56" vType="Cartype" speedFactor="0.90" vaporized=""/>
    <tripinfo id="23" depart="14.00" departLane="2WO1_0" departPos="5.10" departSpeed="0.00" departDelay="0.00" arrival="160.00" arrivalLane="2NS4_0" arrivalPos="196.00" arrivalSpeed="12.12" duration="146.00" routeLength="1187.61" waitingTime="23.00" waitingCount="1" stopTime="0.00" timeLoss="49.23" rerouteNo="3" devices="tripinfo_23" vType="Cartype" speedFactor="0.89" vaporized=""/>
    <tripinfo id="17" depart="36.00" departLane="2OW1_0" departPos="5.10" departSpeed="0.00" departDelay="26.00" arrival="162.00" arrivalLane="2NS4_0" arrivalPos="196.00" arrivalSpeed="13.06" duration="126.00" routeLength="1195.24" waitingTime="7.00" waitingCount="1" stopTime="0.00" timeLoss="33.62" rerouteNo="3" devices="tripinfo_17" vType="Cartype" speedFactor="0.94" vaporized=""/>
    <tripinfo id="0" depart="0.00" departLane="2SN1_0" departPos="5.10" departSpeed="0.00" departDelay="0.00" arrival="163.00" arrivalLane="2SN4_0" arrivalPos="196.00" arrivalSpeed="14.61" duration="163.00" routeLength="1196.97" waitingTime="41.00" waitingCount="1" stopTime="0.00" timeLoss="81.67" rerouteNo="3" devices="tripinfo_0" vType="Cartype" speedFactor="1.06" vaporized=""/>
    <tripinfo id="36" depart="56.00" departLane="2OW1_0" departPos="5.10" departSpeed="0.00" departDelay="36.00" arrival="163.00" arrivalLane="3WO4_0" arrivalPos="196.00" arrivalSpeed="13.27" duration="107.00" routeLength="892.82" waitingTime="14.00" waitingCount="1" stopTime="0.00" timeLoss="39.12" rerouteNo="2" devices="tripinfo_36" vType="Cartype" speedFactor="0.97" vaporized=""/>
    <tripinfo id="2" depart="1.00" departLane="2OW1_0" departPos="5.10" departSpeed="0.00" departDelay="0.00" arrival="164.00" arrivalLane="3NS4_0" arrivalPos="196.00" arrivalSpeed="13.99" duration="163.00" routeLength="894.55" waitingTime="58.00" waitingCount="2" stopTime="0.00" timeLoss="98.19" rerouteNo="2" devices="tripinfo_2" vType="Cartype" speedFactor="1.01" vaporized=""/>
    <tripinfo id="24" depart="19.00" departLane="2WO1_0" departPos="5.10" departSpeed="0.00" departDelay="5.00" arrival="164.00" arrivalLane="2WO4_0" arrivalPos="196.00" arrivalSpeed="11.43" duration="145.00" routeLength="1196.97" waitingTime="21.00" waitingCount="1" stopTime="0.00" timeLoss="40.09" rerouteNo="3" devices="tripinfo_24" vType="Cartype" speedFactor="0.83" vaporized=""/>
    <tripinfo id="64" depart="76.00" departLane="2OW1_0" departPos="5.10" departSpeed="0.00" departDelay="36.00" arrival="165.00" arrivalLane="3WO4_0" arrivalPos="196.00" arrivalSpeed="12.68" duration="89.00" routeLength="892.82" waitingTime="0.00" waitingCount="0" stopTime="0.00" timeLoss="18.80" rerouteNo="2" devices="tripinfo_64" vType="Cartype" speedFactor="0.94" vaporized=""/>
    <tripinfo id="30" depart="32.00" departLane="2NS1_0" departPos="5.10" departSpeed="0.00" departDelay="14.00" arrival="166.00" arrivalLane="1OW4_0" arrivalPos="196.00" arrivalSpeed="16.27" duration="134.00" routeLength="886.92" waitingTime="36.00" waitingCount="2" stopTime="0.00" timeLoss="79.17" rerouteNo="2" devices="tripinfo_30" vType="Cartype" speedFactor="1.18" vaporized=""/>
    <tripinfo id="31" depart="35.00" departLane="2WO1_0" departPos="5.10" departSpeed="0.00" departDelay="17.00" arrival="166.00" arrivalLane="2WO4_0" arrivalPos="196.00" arrivalSpeed="12.29" duration="131.00" routeLength="1196.97" waitingTime="20.00" waitingCount="1" stopTime="0.00" timeLoss="55.69" rerouteNo="3" devices="tripinfo_31" vType="Cartype" speedFactor="1.15" vaporized=""/>
    <tripinfo id="1" depart="5.00" departLane="2SN1_0" departPos="5.10" departSpeed="0.00" departDelay="5.00" arrival="170.00" arrivalLane="2SN4_0" arrivalPos="196.00" arrivalSpeed="12.85" duration="165.00" routeLength="1196.97" waitingTime="40.00" waitingCount="1" stopTime="0.00" timeLoss="72.45" rerouteNo="3" devices="tripinfo_1" vType="Cartype" speedFactor="0.94" vaporized=""/>
    <tripinfo id="18" depart="17.00" departLane="2NS1_0" departPos="5.10" departSpeed="0.00" departDelay="6.00" arrival="174.00" arrivalLane="2NS4_0" arrivalPos="196.00" arrivalSpeed="12.77" duration="157.00" routeLength="1196.97" waitingTime="37.00" waitingCount="1" stopTime="0.00" timeLoss="64.29" rerouteNo="3" devices="tripinfo_18" vType="Cartype" speedFactor="0.94" vaporized=""/>
    <tripinfo id="21" depart="22.00" departLane="2NS1_0" departPos="5.10" departSpeed="0.00" departDelay="10.00" arrival="175.00" arrivalLane="2NS4_0" arrivalPos="196.00" arrivalSpeed="13.49" duration="153.00" routeLength="1196.97" waitingTime="36.00" waitingCount="1" stopTime="0.00" timeLoss="67.60" rerouteNo="3" devices="tripinfo_21" vType="Cartype" speedFactor="1.01" vaporized=""/>
    <tripinfo id="34" depart="43.00" departLane="2NS1_0" departPos="5.10" departSpeed="0.00" departDelay="23.00" arrival="177.00" arrivalLane="2OW4_0" arrivalPos="196.00" arrivalSpeed="13.65" duration="134.00" routeLength="1187.90" waitingTime="19.00" waitingCount="1" stopTime="0.00" timeLoss="47.25" rerouteNo="3" devices="tripinfo_34" vType="Cartype" speedFactor="0.99" vaporized=""/>
    <tripinfo id="94" depart="119.00" departLane="2SN1_0" departPos="5.10" departSpeed="0.00" departDelay="61.00" arrival="179.00" arrivalLane="3OW3_0" arrivalPos="92.00" arrivalSpeed="15.10" duration="60.00" routeLength="489.86" waitingTime="0.00" waitingCount="0" stopTime="0.00" timeLoss="26.65" rerouteNo="1" devices="tripinfo_94" vType="Cartype" speedFactor="1.09" vaporized=""/>
    <tripinfo id="25" depart="27.00" departLane="2NS1_0" departPos="5.10" departSpeed="0.00" departDelay="12.00" arrival="180.00" arrivalLane="1WO4_0" arrivalPos="196.00" arrivalSpeed="11.86" duration="153.00" routeLength="894.55" waitingTime="55.00" waitingCount="1" stopTime="0.00" timeLoss="77.74" rerouteNo="2" devices="tripinfo_25" vType="Cartype" speedFactor="0.87" vaporized=""/>
    <tripinfo id="43" depart="58.00" departLane="2NS1_0" departPos="5.10" departSpeed="0.00" departDelay="32.00" arrival="181.00" arrivalLane="2OW4_0" arrivalPos="196.00" arrivalSpeed="14.15" duration="123.00" routeLength="1187.90" waitingTime="7.00" waitingCount="1" stopTime="0.00" timeLoss="39.83" rerouteNo="3" devices="tripinfo_43" vType="Cartype" speedFactor="1.04" vaporized=""/>
    <tripinfo id="32" depart="37.00" departLane="2NS1_0" departPos="5.10" departSpeed="0.00" departDelay="18.00" arrival="182.00" arrivalLane="1WO4_0" arrivalPos="196.00" arrivalSpeed="12.57" duration="145.00" routeLength="894.55" waitingTime="51.00" waitingCount="1" stopTime="0.00" timeLoss="79.52" rerouteNo="2" devices="tripinfo_32" vType="Cartype" speedFactor="1.01" vaporized=""/>
    <tripinfo id="47" depart="64.00" departLane="2NS1_0" departPos="5.10" departSpeed="0.00" departDelay="34.00" arrival="184.00" arrivalLane="1WO4_0" arrivalPos="196.00" arrivalSpeed="12.29" duration="120.00" routeLength="894.55" waitingTime="22.00" waitingCount="1" stopTime="0.00" timeLoss="47.67" rerouteNo="2" devices="tripinfo_47" vType="Cartype" speedFactor="0.90" vaporized=""/>
    <tripinfo id="72" depart="101.00" departLane="2NS1_0" departPos="5.10" departSpeed="0.00" departDelay="53.00" arrival="186.00" arrivalLane="1WO4_0" arrivalPos="196.00" arrivalSpeed="12.78" duration="85.00" routeLength="894.55" waitingTime="0.00" waitingCount="0" stopTime="0.00" timeLoss="15.24" rerouteNo="2" devices="tripinfo_72" vType="Cartype" speedFactor="0.94" vaporized=""/>
    <tripinfo id="3" depart="2.00" departLane="2NS1_0" departPos="5.10" departSpeed="0.00" departDelay="0.00" arrival="187.00" arrivalLane="3OW4_0" arrivalPos="196.00" arrivalSpeed="14.84" duration="185.00" routeLength="1488.30" waitingTime="53.00" waitingCount="1" stopTime="0.00" timeLoss="84.84" rerouteNo="4" devices="tripinfo_3" vType="Cartype" speedFactor="1.08" vaporized=""/>
    <tripinfo id="33" depart="36.00" departLane="2SN1_0" departPos="5.10" departSpeed="0.00" departDelay="17.00" arrival="188.00" arrivalLane="2OW4_0" arrivalPos="196.00" arrivalSpeed="15.92" duration="152.00" routeLength="1195.53" waitingTime="43.00" waitingCount="2" stopTime="0.00" timeLoss="77.75" rerouteNo="3" devices="tripinfo_33" vType="Cartype" speedFactor="1.17" vaporized=""/>
    <tripinfo id="78" depart="101.00" departLane="2OW1_0" departPos="5.10" departSpeed="0.00" departDelay="51.00" arrival="195.00" arrivalLane="3WO4_0" arrivalPos="196.00" arrivalSpeed="13.96" duration="94.00" routeLength="892.82" waitingTime="2.00" waitingCount="1" stopTime="0.00" timeLoss="28.25" rerouteNo="2" devices="tripinfo_78" vType="Cartype" speedFactor="1.01" vaporized=""/>
    <tripinfo id="82" depart="116.00" departLane="2NS1_0" departPos="5.10" departSpeed="0.00" departDelay="63.00" arrival="200.00" arrivalLane="3SN4_0" arrivalPos="196.00" arrivalSpeed="13.84" duration="84.00" routeLength="892.82" waitingTime="0.00" waitingCount="0" stopTime="0.00" timeLoss="19.30" rerouteNo="2" devices="tripinfo_82" vType="Cartype" speedFactor="1.02" vaporized=""/>
    <tripinfo id="53" depart="63.00" departLane="2SN1_0" departPos="5.10" departSpeed="0.00" departDelay="29.00" arrival="207.00" arrivalLane="3NS4_0" arrivalPos="196.00" arrivalSpeed="14.89" duration="144.00" routeLength="877.56" waitingTime="44.00" waitingCount="2" stopTime="0.00" timeLoss="84.31" rerouteNo="2" devices="tripinfo_53" vType="Cartype" speedFactor="1.10" vaporized=""/>
    <tripinfo id="54" depart="68.00" departLane="2SN1_0" departPos="5.10" departSpeed="0.00" departDelay="34.00" arrival="210.00" arrivalLane="3NS4_0" arrivalPos="196.00" arrivalSpeed="13.55" duration="142.00" routeLength="877.56" waitingTime="39.00" waitingCount="2" stopTime="0.00" timeLoss="77.13" rerouteNo="2" devices="tripinfo_54" vType="Cartype" speedFactor="1.00" vaporized=""/>
    <tripinfo id="105" depart="135.00" departLane="2SN1_0" departPos="5.10" departSpeed="0.00" departDelay="70.00" arrival="211.00" arrivalLane="3OW4_0" arrivalPos="196.00" arrivalSpeed="14.57" duration="76.00" routeLength="894.55" waitingTime="0.00" waitingCount="0" stopTime="0.00" timeLoss="14.79" rerouteNo="2" devices="tripinfo_105" vType="Cartype" speedFactor="1.07" vaporized=""/>
    <tripinfo id="60" depart="73.00" departLane="2SN1_0" departPos="5.10" departSpeed="0.00" departDelay="35.00" arrival="212.00" arrivalLane="3WO4_0" arrivalPos="196.00" arrivalSpeed="14.65" duration="139.00" routeLength="886.92" waitingTime="34.00" waitingCount="2" stopTime="0.00" timeLoss="78.75" rerouteNo="2" devices="tripinfo_60" vType="Cartype" speedFactor="1.08" vaporized=""/>
    <tripinfo id="75" depart="98.00" departLane="2SN1_0" departPos="5.10" departSpeed="0.00" departDelay="49.00" arrival="215.00" arrivalLane="3WO4_0" arrivalPos="196.00" arrivalSpeed="13.32" duration="117.00" routeLength="886.92" waitingTime="9.00" waitingCount="2" stopTime="0.00" timeLoss="50.74" rerouteNo="2" devices="tripinfo_75" vType="Cartype" speedFactor="0.98" vaporized=""/>
    <tripinfo id="7" depart="11.00" departLane="2OW1_0" departPos="5.10" departSpeed="0.00" departDelay="7.00" arrival="217.00" arrivalLane="1SN4_0" arrivalPos="196.00" arrivalSpeed="12.16" duration="206.00" routeLength="1488.59" waitingTime="44.00" waitingCount="2" stopTime="0.00" timeLoss="83.81" rerouteNo="4" devices="tripinfo_7" vType="Cartype" speedFactor="0.89" vaporized=""/>
    <tripinfo id="77" depart="86.00" departLane="2WO1_0" departPos="5.10" departSpeed="0.00" departDelay="36.00" arrival="220.00" arrivalLane="1SN4_0" arrivalPos="196.00" arrivalSpeed="13.43" duration="134.00" routeLength="894.55" waitingTime="21.00" waitingCount="1" stopTime="0.00" timeLoss="67.09" rerouteNo="2" devices="tripinfo_77" vType="Cartype" speedFactor="0.98" vaporized=""/>
    <tripinfo id="22" depart="31.00" departLane="2SN1_0" departPos="5.10" departSpeed="0.00" departDelay="17.00" arrival="221.00" arrivalLane="2SN4_0" arrivalPos="196.00" arrivalSpeed="13.53" duration="190.00" routeLength="1196.97" waitingTime="63.00" waitingCount="2" stopTime="0.00" timeLoss="100.81" rerouteNo="3" devices="tripinfo_22" vType="Cartype" speedFactor="0.98" vaporized=""/>
    <tripinfo id="85" depart="101.00" departLane="2WO1_0" departPos="5.10" departSpeed="0.00" departDelay="48.00" arrival="222.00" arrivalLane="1SN4_0" arrivalPos="196.00" arrivalSpeed="13.48" duration="121.00" routeLength="894.55" waitingTime="20.00" waitingCount="1" stopTime="0.00" timeLoss="53.91" rerouteNo="2" devices="tripinfo_85" vType="Cartype" speedFactor="0.98" vaporized=""/>
    <tripinfo id="29" depart="51.00" departLane="2OW1_0" departPos="5.10" departSpeed="0.00" departDelay="34.00" arrival="223.00" arrivalLane="2SN4_0" arrivalPos="196.00" arrivalSpeed="12.90" duration="172.00" routeLength="1187.61" waitingTime="45.00" waitingCount="1" stopTime="0.00" timeLoss="79.14" rerouteNo="3" devices="tripinfo_29" vType="Cartype" speedFactor="0.93" vaporized=""/>
    <tripinfo id="70" depart="81.00" departLane="2OW1_0" departPos="5.10" departSpeed="0.00" departDelay="34.00" arrival="223.00" arrivalLane="3SN4_0" arrivalPos="196.00" arrivalSpeed="14.01" duration="142.00" routeLength="886.92" waitingTime="41.00" waitingCount="2" stopTime="0.00" timeLoss="78.71" rerouteNo="2" devices="tripinfo_70" vType="Cartype" speedFactor="1.02" vaporized=""/>
    <tripinfo id="71" depart="86.00" departLane="2OW1_0" departPos="5.10" departSpeed="0.00" departDelay="39.00" arrival="226.00" arrivalLane="3SN4_0" arrivalPos="196.00" arrivalSpeed="13.34" duration="140.00" routeLength="886.92" waitingTime="36.00" waitingCount="2" stopTime="0.00" timeLoss="73.08" rerouteNo="2" devices="tripinfo_71" vType="Cartype" speedFactor="0.97" vaporized=""/>
    <tripinfo id="115" depart="138.00" departLane="2WO1_0" departPos="5.10" departSpeed="0.00" departDelay="62.00" arrival="226.00" arrivalLane="1SN4_0" arrivalPos="196.00" arrivalSpeed="12.78" duration="88.00" routeLength="894.55" waitingTime="0.00" waitingCount="0" stopTime="0.00" timeLoss="16.97" rerouteNo="2" devices="tripinfo_115" vType="Cartype" speedFactor="0.92" vaporized=""/>
    <tripinfo id="76" depart="96.00" departLane="2OW1_0" departPos="5.10" departSpeed="0.00" departDelay="47.00" arrival="227.00" arrivalLane="3SN4_0" arrivalPos="196.00" arrivalSpeed="13.75" duration="131.00" routeLength="886.92" waitingTime="26.00" waitingCount="2" stopTime="0.00" timeLoss="67.99" rerouteNo="2" devices="tripinfo_76" vType="Cartype" speedFactor="1.03" vaporized=""/>
    <tripinfo id="89" depart="106.00" departLane="2OW1_0" departPos="5.10" departSpeed="0.00" departDelay="52.00" arrival="229.00" arrivalLane="3SN4_0" arrivalPos="196.00" arrivalSpeed="13.84" duration="123.00" routeLength="886.92" waitingTime="19.00" waitingCount="1" stopTime="0.00" timeLoss="59.41" rerouteNo="2" devices="tripinfo_89" vType="Cartype" speedFactor="1.02" vaporized=""/>
    <tripinfo id="58" depart="85.00" departLane="2NS1_0" departPos="5.10" departSpeed="0.00" departDelay="49.00" arrival="235.00" arrivalLane="3SN4_0" arrivalPos="196.00" arrivalSpeed="14.05" duration="150.00" routeLength="1494.20" waitingTime="11.00" waitingCount="1" stopTime="0.00" timeLoss="42.59" rerouteNo="4" devices="tripinfo_58" vType="Cartype" speedFactor="1.02" vaporized=""/>
    <tripinfo id="46" depart="52.00" departLane="2SN1_0" departPos="5.10" departSpeed="0.00" departDelay="23.00" arrival="237.00" arrivalLane="2WO4_0" arrivalPos="196.00" arrivalSpeed="13.83" duration="185.00" routeLength="1176.52" waitingTime="67.00" waitingCount="1" stopTime="0.00" timeLoss="97.89" rerouteNo="3" devices="tripinfo_46" vType="Cartype" speedFactor="1.00" vaporized=""/>
    <tripinfo id="57" depart="71.00" departLane="2OW1_0" departPos="5.10" departSpeed="0.00" departDelay="36.00" arrival="240.00" arrivalLane="2OW4_0" arrivalPos="196.00" arrivalSpeed="15.65" duration="169.00" routeLength="1197.26" waitingTime="49.00" waitingCount="2" stopTime="0.00" timeLoss="93.18" rerouteNo="3" devices="tripinfo_57" vType="Cartype" speedFactor="1.14" vaporized=""/>
    <tripinfo id="67" depart="80.00" departLane="2WO1_0" departPos="5.10" departSpeed="0.00" departDelay="38.00" arrival="242.00" arrivalLane="2SN4_0" arrivalPos="196.00" arrivalSpeed="12.44" duration="162.00" routeLength="1195.24" waitingTime="21.00" waitingCount="3" stopTime="0.00" timeLoss="66.36" rerouteNo="3" devices="tripinfo_67" vType="Cartype" speedFactor="0.91" vaporized=""/>
    <tripinfo id="81" depart="91.00" departLane="2WO1_0" departPos="5.10" departSpeed="0.00" departDelay="40.00" arrival="242.00" arrivalLane="3OW4_0" arrivalPos="196.00" arrivalSpeed="13.67" duration="151.00" routeLength="877.56" waitingTime="51.00" waitingCount="1" stopTime="0.00" timeLoss="86.29" rerouteNo="2" devices="tripinfo_81" vType="Cartype" speedFactor="1.00" vaporized=""/>
    <tripinfo id="86" depart="106.00" departLane="2WO1_0" departPos="5.10" departSpeed="0.00" departDelay="52.00" arrival="243.00" arrivalLane="2SN4_0" arrivalPos="196.00" arrivalSpeed="12.80" duration="137.00" routeLength="1195.24" waitingTime="16.00" waitingCount="2" stopTime="0.00" timeLoss="50.28" rerouteNo="3" devices="tripinfo_86" vType="Cartype" speedFactor="1.00" vaporized=""/>
    <tripinfo id="48" depart="55.00" departLane="2WO1_0" departPos="5.10" departSpeed="0.00" departDelay="25.00" arrival="244.00" arrivalLane="3SN4_0" arrivalPos="196.00" arrivalSpeed="11.86" duration="189.00" routeLength="1495.93" waitingTime="29.00" waitingCount="2" stopTime="0.00" timeLoss="64.82" rerouteNo="4" devices="tripinfo_48" vType="Cartype" speedFactor="0.88" vaporized=""/>
    <tripinfo id="84" depart="96.00" departLane="2WO1_0" departPos="5.10" departSpeed="0.00" departDelay="43.00" arrival="244.00" arrivalLane="3OW4_0" arrivalPos="196.00" arrivalSpeed="15.49" duration="148.00" routeLength="877.56" waitingTime="51.00" waitingCount="1" stopTime="0.00" timeLoss="91.23" rerouteNo="2" devices="tripinfo_84" vType="Cartype" speedFactor="1.15" vaporized=""/>
    <tripinfo id="98" depart="127.00" departLane="2OW1_0" departPos="5.10" departSpeed="0.00" departDelay="66.00" arrival="244.00" arrivalLane="2OW4_0" arrivalPos="196.00" arrivalSpeed="15.37" duration="117.00" routeLength="1197.26" waitingTime="2.00" waitingCount="1" stopTime="0.00" timeLoss="39.85" rerouteNo="3" devices="tripinfo_98" vType="Cartype" speedFactor="1.12" vaporized=""/>
    <tripinfo id="109" depart="128.00" departLane="2WO1_0" departPos="5.10" departSpeed="0.00" departDelay="61.00" arrival="247.00" arrivalLane="3OW4_0" arrivalPos="196.00" arrivalSpeed="13.07" duration="119.00" routeLength="877.56" waitingTime="25.00" waitingCount="1" stopTime="0.00" timeLoss="51.37" rerouteNo="2" devices="tripinfo_109" vType="Cartype" speedFactor="0.96" vaporized=""/>
    <tripinfo id="88" depart="116.00" departLane="2WO1_0" departPos="5.10" departSpeed="0.00" departDelay="62.00" arrival="248.00" arrivalLane="2NS4_0" arrivalPos="196.00" arrivalSpeed="13.80" duration="132.00" routeLength="1187.61" waitingTime="18.00" waitingCount="1" stopTime="0.00" timeLoss="46.36" rerouteNo="3" devices="tripinfo_88" vType="Cartype" speedFactor="1.01" vaporized=""/>
    <tripinfo id="44" depart="41.00" departLane="2SN1_0" departPos="5.10" departSpeed="0.00" departDelay="14.00" arrival="249.00" arrivalLane="3OW4_0" arrivalPos="196.00" arrivalSpeed="14.29" duration="208.00" routeLength="1485.13" waitingTime="51.00" waitingCount="3" stopTime="0.00" timeLoss="102.86" rerouteNo="4" devices="tripinfo_44" vType="Cartype" speedFactor="1.04" vaporized=""/>
    <tripinfo id="113" depart="133.00" departLane="2WO1_0" departPos="5.10" departSpeed="0.00" departDelay="62.00" arrival="249.00" arrivalLane="1NS4_0" arrivalPos="196.00" arrivalSpeed="13.81" duration="116.00" routeLength="886.92" waitingTime="22.00" waitingCount="1" stopTime="0.00" timeLoss="51.11" rerouteNo="2" devices="tripinfo_113" vType="Cartype" speedFactor="1.01" vaporized=""/>
    <tripinfo id="40" depart="61.00" departLane="2OW1_0" departPos="5.10" departSpeed="0.00" departDelay="39.00" arrival="250.00" arrivalLane="2NS4_0" arrivalPos="196.00" arrivalSpeed="14.31" duration="189.00" routeLength="1195.24" waitingTime="54.00" waitingCount="3" stopTime="0.00" timeLoss="104.12" rerouteNo="3" devices="tripinfo_40" vType="Cartype" speedFactor="1.03" vaporized=""/>
    <tripinfo id="16" depart="20.00" departLane="2SN1_0" departPos="5.10" departSpeed="0.00" departDelay="10.00" arrival="253.00" arrivalLane="2WO4_0" arrivalPos="196.00" arrivalSpeed="12.03" duration="233.00" routeLength="1778.19" waitingTime="43.00" waitingCount="2" stopTime="0.00" timeLoss="84.34" rerouteNo="5" devices="tripinfo_16" vType="Cartype" speedFactor="0.88" vaporized=""/>
    <tripinfo id="106" depart="122.00" departLane="2WO1_0" departPos="5.10" departSpeed="0.00" departDelay="57.00" arrival="254.00" arrivalLane="2WO4_0" arrivalPos="196.00" arrivalSpeed="12.92" duration="132.00" routeLength="1196.97" waitingTime="19.00" waitingCount="1" stopTime="0.00" timeLoss="46.71" rerouteNo="3" devices="tripinfo_106" vType="Cartype" speedFactor="1.01" vaporized=""/>
    <tripinfo id="93" depart="116.00" departLane="2OW1_0" departPos="5.10" departSpeed="0.00" departDelay="59.00" arrival="255.00" arrivalLane="2NS4_0" arrivalPos="196.00" arrivalSpeed="12.46" duration="139.00" routeLength="1195.24" waitingTime="3.00" waitingCount="2" stopTime="0.00" timeLoss="44.64" rerouteNo="3" devices="tripinfo_93" vType="Cartype" speedFactor="0.92" vaporized=""/>
    <tripinfo id="80" depart="103.00" departLane="2SN1_0" departPos="5.10" departSpeed="0.00" departDelay="52.00" arrival="256.00" arrivalLane="2WO4_0" arrivalPos="196.00" arrivalSpeed="13.52" duration="153.00" routeLength="1187.61" waitingTime="25.00" waitingCount="1" stopTime="0.00" timeLoss="68.98" rerouteNo="3" devices="tripinfo_80" vType="Cartype" speedFactor="1.03" vaporized=""/>
    <tripinfo id="55" depart="80.00" departLane="2NS1_0" departPos="5.10" departSpeed="0.00" departDelay="45.00" arrival="258.00" arrivalLane="2OW4_0" arrivalPos="196.00" arrivalSpeed="13.64" duration="178.00" routeLength="1187.90" waitingTime="56.00" waitingCount="1" stopTime="0.00" timeLoss="91.08" rerouteNo="3" devices="tripinfo_55" vType="Cartype" speedFactor="1.00" vaporized=""/>
    <tripinfo id="79" depart="111.00" departLane="2NS1_0" departPos="5.10" departSpeed="0.00" departDelay="60.00" arrival="259.00" arrivalLane="1SN4_0" arrivalPos="196.00" arrivalSpeed="14.96" duration="148.00" routeLength="877.56" waitingTime="57.00" waitingCount="1" stopTime="0.00" timeLoss="88.63" rerouteNo="2" devices="tripinfo_79" vType="Cartype" speedFactor="1.09" vaporized=""/>
    <tripinfo id="111" depart="147.00" departLane="2OW1_0" departPos="5.10" departSpeed="0.00" departDelay="77.00" arrival="259.00" arrivalLane="3NS4_0" arrivalPos="196.00" arrivalSpeed="12.02" duration="112.00" routeLength="894.55" waitingTime="12.00" waitingCount="1" stopTime="0.00" timeLoss="35.88" rerouteNo="2" devices="tripinfo_111" vType="Cartype" speedFactor="0.87" vaporized=""/>
    <tripinfo id="83" depart="108.00" departLane="2SN1_0" departPos="5.10" departSpeed="0.00" departDelay="55.00" arrival="260.00" arrivalLane="2WO4_0" arrivalPos="196.00" arrivalSpeed="13.29" duration="152.00" routeLength="1187.61" waitingTime="26.00" waitingCount="2" stopTime="0.00" timeLoss="62.65" rerouteNo="3" devices="tripinfo_83" vType="Cartype" speedFactor="0.97" vaporized=""/>
    <tripinfo id="5" depart="6.00" departLane="2OW1_0" departPos="5.10" departSpeed="0.00" departDelay="4.00" arrival="261.00" arrivalLane="1OW4_0" arrivalPos="196.00" arrivalSpeed="11.20" duration="255.00" routeLength="1486.57" waitingTime="88.00" waitingCount="2" stopTime="0.00" timeLoss="124.32" rerouteNo="4" devices="tripinfo_5" vType="Cartype" speedFactor="0.83" vaporized=""/>
    <tripinfo id="11" depart="21.00" departLane="2OW1_0" departPos="5.10" departSpeed="0.00" departDelay="14.00" arrival="263.00" arrivalLane="1SN4_0" arrivalPos="196.00" arrivalSpeed="14.17" duration="242.00" routeLength="1477.21" waitingTime="83.00" waitingCount="3" stopTime="0.00" timeLoss="136.64" rerouteNo="4" devices="tripinfo_11" vType="Cartype" speedFactor="1.03" vaporized=""/>
    <tripinfo id="19" depart="25.00" departLane="2SN1_0" departPos="5.10" departSpeed="0.00" departDelay="14.00" arrival="263.00" arrivalLane="1OW4_0" arrivalPos="196.00" arrivalSpeed="12.84" duration="238.00" routeLength="1495.93" waitingTime="91.00" waitingCount="2" stopTime="0.00" timeLoss="143.97" rerouteNo="4" devices="tripinfo_19" vType="Cartype" speedFactor="1.16" vaporized=""/>
    <tripinfo id="73" depart="106.00" departLane="2NS1_0" departPos="5.10" departSpeed="0.00" departDelay="58.00" arrival="263.00" arrivalLane="2NS4_0" arrivalPos="196.00" arrivalSpeed="14.32" duration="157.00" routeLength="1196.97" waitingTime="47.00" waitingCount="1" stopTime="0.00" timeLoss="74.80" rerouteNo="3" devices="tripinfo_73" vType="Cartype" speedFactor="1.06" vaporized=""/>
    <tripinfo id="20" depart="41.00" departLane="2OW1_0" departPos="5.10" departSpeed="0.00" departDelay="30.00" arrival="266.00" arrivalLane="2NS4_0" arrivalPos="196.00" arrivalSpeed="14.11" duration="225.00" routeLength="1785.53" waitingTime="41.00" waitingCount="3" stopTime="0.00" timeLoss="95.82" rerouteNo="5" devices="tripinfo_20" vType="Cartype" speedFactor="1.02" vaporized=""/>
    <tripinfo id="26" depart="46.00" departLane="2OW1_0" departPos="5.10" departSpeed="0.00" departDelay="31.00" arrival="267.00" arrivalLane="1SN4_0" arrivalPos="196.00" arrivalSpeed="12.57" duration="221.00" routeLength="1477.21" waitingTime="56.00" waitingCount="2" stopTime="0.00" timeLoss="102.66" rerouteNo="4" devices="tripinfo_26" vType="Cartype" speedFactor="0.92" vaporized=""/>