<?xml version="1.0" encoding="UTF-8"?>

<!-- generated on 01/28/20 20:18:42 by Eclipse SUMO Version 1.3.1
<configuration xmlns:xsi="http://www.w3.org/2001/XMLSchema-instance" xsi:noNamespaceSchemaLocation="http://sumo.dlr.de/xsd/sumoConfiguration.xsd">

    <input>
        <net-file value="Data/Cross_3_3.net.xml"/>
        <route-files value="Data/Cross12.rou.xml"/>
        <additional-files value="Data/rerouter.xml,Data/trafficLight.add.xml"/>
    </input>

    <output>
        <tripinfo-output value="tripinfo.xml"/>
    </output>

    <report>
        <log value="logfile.txt"/>
    </report>

    <traci_server>
        <remote-port value="52428"/>
    </traci_server>

</configuration>
-->

<tripinfos xmlns:xsi="http://www.w3.org/2001/XMLSchema-instance" xsi:noNamespaceSchemaLocation="http://sumo.dlr.de/xsd/tripinfo_file.xsd">
    <tripinfo id="0" depart="281.00" departLane="2WO1_0" departPos="5.10" departSpeed="0.00" departDelay="0.00" arrival="407.00" arrivalLane="2SN4_0" arrivalPos="196.00" arrivalSpeed="14.37" duration="126.00" routeLength="1195.24" waitingTime="12.00" waitingCount="1" stopTime="0.00" timeLoss="43.80" rerouteNo="3" devices="tripinfo_0" vType="Cartype" speedFactor="1.06" vaporized=""/>
    <tripinfo id="1" depart="345.00" departLane="2OW1_0" departPos="5.10" departSpeed="0.00" departDelay="0.00" arrival="447.00" arrivalLane="3SN4_0" arrivalPos="196.00" arrivalSpeed="12.78" duration="102.00" routeLength="886.92" waitingTime="5.00" waitingCount="1" stopTime="0.00" timeLoss="32.63" rerouteNo="2" devices="tripinfo_1" vType="Cartype" speedFactor="0.94" vaporized=""/>
    <tripinfo id="2" depart="368.00" departLane="2SN1_0" departPos="5.10" departSpeed="0.00" departDelay="0.00" arrival="468.00" arrivalLane="3OW4_0" arrivalPos="196.00" arrivalSpeed="13.85" duration="100.00" routeLength="894.55" waitingTime="7.00" waitingCount="1" stopTime="0.00" timeLoss="34.66" rerouteNo="2" devices="tripinfo_2" vType="Cartype" speedFactor="1.01" vaporized=""/>
    <tripinfo id="3" depart="443.00" departLane="2WO1_0" departPos="5.10" departSpeed="0.00" departDelay="0.00" arrival="596.00" arrivalLane="3SN4_0" arrivalPos="196.00" arrivalSpeed="14.67" duration="153.00" routeLength="1495.93" waitingTime="5.00" waitingCount="2" stopTime="0.00" timeLoss="51.93" rerouteNo="4" devices="tripinfo_3" vType="Cartype" speedFactor="1.08" vaporized=""/>
    <tripinfo id="4" depart="448.00" departLane="2OW1_0" departPos="5.10" departSpeed="0.00" departDelay="0.00" arrival="607.00" arrivalLane="1SN4_0" arrivalPos="196.00" arrivalSpeed="13.94" duration="159.00" routeLength="1488.59" waitingTime="12.00" waitingCount="2" stopTime="0.00" timeLoss="54.48" rerouteNo="4" devices="tripinfo_4" vType="Cartype" speedFactor="1.03" vaporized=""/>
    <tripinfo id="5" depart="577.00" departLane="2WO1_0" departPos="5.10" departSpeed="0.00" departDelay="0.00" arrival="716.00" arrivalLane="3OW3_0" arrivalPos="92.00" arrivalSpeed="11.37" duration="139.00" routeLength="1074.25" waitingTime="20.00" waitingCount="1" stopTime="0.00" timeLoss="44.07" rerouteNo="3" devices="tripinfo_5" vType="Cartype" speedFactor="0.83" vaporized=""/>
    <tripinfo id="6" depart="680.00" departLane="2NS1_0" departPos="5.10" departSpeed="0.00" departDelay="0.00" arrival="814.00" arrivalLane="2OW4_0" arrivalPos="196.00" arrivalSpeed="14.47" duration="134.00" routeLength="1187.90" waitingTime="13.00" waitingCount="2" stopTime="0.00" timeLoss="50.91" rerouteNo="3" devices="tripinfo_6" vType="Cartype" speedFactor="1.05" vaporized=""/>
    <tripinfo id="7" depart="705.00" departLane="2WO1_0" departPos="5.10" departSpeed="0.00" departDelay="0.00" arrival="814.00" arrivalLane="3OW4_0" arrivalPos="196.00" arrivalSpeed="12.26" duration="109.00" routeLength="877.56" waitingTime="10.00" waitingCount="1" stopTime="0.00" timeLoss="35.34" rerouteNo="2" devices="tripinfo_7" vType="Cartype" speedFactor="0.89" vaporized=""/>
    <tripinfo id="9" depart="733.00" departLane="2NS1_0" departPos="5.10" departSpeed="0.00" departDelay="0.00" arrival="837.00" arrivalLane="1OW4_0" arrivalPos="196.00" arrivalSpeed="11.52" duration="104.00" routeLength="886.92" waitingTime="4.00" waitingCount="1" stopTime="0.00" timeLoss="27.87" rerouteNo="2" devices="tripinfo_9" vType="Cartype" speedFactor="0.86" vaporized=""/>
    <tripinfo id="8" depart="719.00" departLane="2OW1_0" departPos="5.10" departSpeed="0.00" departDelay="0.00" arrival="840.00" arrivalLane="2OW4_0" arrivalPos="196.00" arrivalSpeed="12.79" duration="121.00" routeLength="1197.26" waitingTime="4.00" waitingCount="1" stopTime="0.00" timeLoss="28.50" rerouteNo="3" devices="tripinfo_8" vType="Cartype" speedFactor="0.94" vaporized=""/>
    <tripinfo id="10" depart="739.00" departLane="2NS1_0" departPos="5.10" departSpeed="0.00" departDelay="0.00" arrival="856.00" arrivalLane="2WO4_0" arrivalPos="196.00" arrivalSpeed="14.97" duration="117.00" routeLength="1184.15" waitingTime="4.00" waitingCount="1" stopTime="0.00" timeLoss="36.52" rerouteNo="3" devices="tripinfo_10" vType="Cartype" speedFactor="1.09" vaporized=""/>
    <tripinfo id="11" depart="1010.00" departLane="2NS1_0" departPos="5.10" departSpeed="0.00" departDelay="0.00" arrival="1089.00" arrivalLane="1WO4_0" arrivalPos="196.00" arrivalSpeed="13.92" duration="79.00" routeLength="894.55" waitingTime="0.00" waitingCount="0" stopTime="0.00" timeLoss="15.14" rerouteNo="2" devices="tripinfo_11" vType="Cartype" speedFactor="1.03" vaporized=""/>
    <tripinfo id="12" depart="1260.00" departLane="2OW1_0" departPos="5.10" departSpeed="0.00" departDelay="0.00" arrival="1407.00" arrivalLane="1SN4_0" arrivalPos="196.00" arrivalSpeed="14.39" duration="147.00" routeLength="1477.21" waitingTime="13.00" waitingCount="1" stopTime="0.00" timeLoss="42.78" rerouteNo="4" devices="tripinfo_12" vType="Cartype" speedFactor="1.05" vaporized=""/>
    <tripinfo id="13" depart="1344.00" departLane="2NS1_0" departPos="5.10" departSpeed="0.00" departDelay="0.00" arrival="1418.00" arrivalLane="1WO4_0" arrivalPos="196.00" arrivalSpeed="15.21" duration="74.00" routeLength="894.55" waitingTime="0.00" waitingCount="0" stopTime="0.00" timeLoss="16.03" rerouteNo="2" devices="tripinfo_13" vType="Cartype" speedFactor="1.12" vaporized=""/>
    <tripinfo id="14" depart="1371.00" departLane="2NS1_0" departPos="5.10" departSpeed="0.00" departDelay="0.00" arrival="1513.00" arrivalLane="2NS4_0" arrivalPos="196.00" arrivalSpeed="13.64" duration="142.00" routeLength="1196.97" waitingTime="14.00" waitingCount="2" stopTime="0.00" timeLoss="54.47" rerouteNo="3" devices="tripinfo_14" vType="Cartype" speedFactor="0.99" vaporized=""/>
    <tripinfo id="15" depart="1389.00" departLane="2WO1_0" departPos="5.10" departSpeed="0.00" departDelay="0.00" arrival="1563.00" arrivalLane="3NS4_0" arrivalPos="196.00" arrivalSpeed="12.77" duration="174.00" routeLength="1488.30" waitingTime="21.00" waitingCount="1" stopTime="0.00" timeLoss="56.71" rerouteNo="4" devices="tripinfo_15" vType="Cartype" speedFactor="0.93" vaporized=""/>
    <tripinfo id="16" depart="1543.00" departLane="2OW1_0" departPos="5.10" departSpeed="0.00" departDelay="0.00" arrival="1691.00" arrivalLane="2OW4_0" arrivalPos="196.00" arrivalSpeed="12.11" duration="148.00" routeLength="1197.26" waitingTime="17.00" waitingCount="2" stopTime="0.00" timeLoss="49.02" rerouteNo="3" devices="tripinfo_16" vType="Cartype" speedFactor="0.88" vaporized=""/>
    <tripinfo id="17" depart="1631.00" departLane="2NS1_0" departPos="5.10" departSpeed="0.00" departDelay="0.00" arrival="1756.00" arrivalLane="2NS4_0" arrivalPos="196.00" arrivalSpeed="12.85" duration="125.00" routeLength="1196.97" waitingTime="11.00" waitingCount="1" stopTime="0.00" timeLoss="32.99" rerouteNo="3" devices="tripinfo_17" vType="Cartype" speedFactor="0.94" vaporized=""/>
    <tripinfo id="18" depart="2016.00" departLane="2OW1_0" departPos="5.10" departSpeed="0.00" departDelay="0.00" arrival="2140.00" arrivalLane="2NS4_0" arrivalPos="196.00" arrivalSpeed="12.75" duration="124.00" routeLength="1184.15" waitingTime="5.00" waitingCount="1" stopTime="0.00" timeLoss="30.74" rerouteNo="3" devices="tripinfo_18" vType="Cartype" speedFactor="0.94" vaporized=""/>
    <tripinfo id="19" depart="2306.00" departLane="2OW1_0" departPos="5.10" departSpeed="0.00" departDelay="0.00" arrival="2397.00" arrivalLane="3NS4_0" arrivalPos="196.00" arrivalSpeed="15.90" duration="91.00" routeLength="894.55" waitingTime="6.00" waitingCount="1" stopTime="0.00" timeLoss="34.04" rerouteNo="2" devices="tripinfo_19" vType="Cartype" speedFactor="1.16" vaporized=""/>
    <tripinfo id="20" depart="2312.00" departLane="2NS1_0" departPos="5.10" departSpeed="0.00" departDelay="0.00" arrival="2448.00" arrivalLane="3WO4_0" arrivalPos="196.00" arrivalSpeed="14.04" duration="136.00" routeLength="1495.93" waitingTime="3.00" waitingCount="1" stopTime="0.00" timeLoss="29.53" rerouteNo="4" devices="tripinfo_20" vType="Cartype" speedFactor="1.02" vaporized=""/>
    <tripinfo id="21" depart="2319.00" departLane="2OW1_0" departPos="5.10" departSpeed="0.00" departDelay="0.00" arrival="2531.00" arrivalLane="1OW4_0" arrivalPos="196.00" arrivalSpeed="13.90" duration="212.00" routeLength="1486.57" waitingTime="48.00" waitingCount="4" stopTime="0.00" timeLoss="104.10" rerouteNo="4" devices="tripinfo_21" vType="Cartype" speedFactor="1.01" vaporized=""/>
    <tripinfo id="23" depart="2529.00" departLane="2OW1_0" departPos="5.10" departSpeed="0.00" departDelay="0.00" arrival="2658.00" arrivalLane="2OW4_0" arrivalPos="196.00" arrivalSpeed="12.29" duration="129.00" routeLength="1197.26" waitingTime="9.00" waitingCount="1" stopTime="0.00" timeLoss="31.41" rerouteNo="3" devices="tripinfo_23" vType="Cartype" speedFactor="0.89" vaporized=""/>
    <tripinfo id="22" depart="2424.00" departLane="2OW1_0" departPos="5.10" departSpeed="0.00" departDelay="0.00" arrival="2722.00" arrivalLane="2OW4_0" arrivalPos="196.00" arrivalSpeed="13.44" duration="298.00" routeLength="2393.39" waitingTime="44.00" waitingCount="4" stopTime="0.00" timeLoss="118.55" rerouteNo="7" devices="tripinfo_22" vType="Cartype" speedFactor="0.98" vaporized=""/>
    <tripinfo id="24" depart="2537.00" departLane="2SN1_0" departPos="5.10" departSpeed="0.00" departDelay="0.00" arrival="2724.00" arrivalLane="3OW4_0" arrivalPos="196.00" arrivalSpeed="11.20" duration="187.00" routeLength="1485.13" waitingTime="21.00" waitingCount="2" stopTime="0.00" timeLoss="54.08" rerouteNo="4" devices="tripinfo_24" vType="Cartype" speedFactor="0.83" vaporized=""/>
    <tripinfo id="25" depart="2762.00" departLane="2NS1_0" departPos="5.10" departSpeed="0.00" departDelay="0.00" arrival="2865.00" arrivalLane="1OW4_0" arrivalPos="196.00" arrivalSpeed="11.88" duration="103.00" routeLength="886.92" waitingTime="3.00" waitingCount="1" stopTime="0.00" timeLoss="28.61" rerouteNo="2" devices="tripinfo_25" vType="Cartype" speedFactor="0.87" vaporized=""/>
    <tripinfo id="27" depart="2986.00" departLane="2NS1_0" departPos="5.10" departSpeed="0.00" departDelay="0.00" arrival="3069.00" arrivalLane="1OW4_0" arrivalPos="196.00" arrivalSpeed="13.03" duration="83.00" routeLength="886.92" waitingTime="0.00" waitingCount="0" stopTime="0.00" timeLoss="14.28" rerouteNo="2" devices="tripinfo_27" vType="Cartype" speedFactor="0.95" vaporized=""/>
    <tripinfo id="28" depart="3002.00" departLane="2NS1_0" departPos="5.10" departSpeed="0.00" departDelay="0.00" arrival="3105.00" arrivalLane="1OW4_0" arrivalPos="196.00" arrivalSpeed="15.51" duration="103.00" routeLength="886.92" waitingTime="2.00" waitingCount="1" stopTime="0.00" timeLoss="45.85" rerouteNo="2" devices="tripinfo_28" vType="Cartype" speedFactor="1.13" vaporized=""/>
    <tripinfo id="26" depart="2985.00" departLane="2OW1_0" departPos="5.10" departSpeed="0.00" departDelay="0.00" arrival="3204.00" arrivalLane="2OW4_0" arrivalPos="196.00" arrivalSpeed="12.51" duration="219.00" routeLength="1775.76" waitingTime="22.00" waitingCount="3" stopTime="0.00" timeLoss="76.56" rerouteNo="5" devices="tripinfo_26" vType="Cartype" speedFactor="0.92" vaporized=""/>
    <tripinfo id="29" depart="3207.00" departLane="2NS1_0" departPos="5.10" departSpeed="0.00" departDelay="0.00" arrival="3359.00" arrivalLane="2OW4_0" arrivalPos="196.00" arrivalSpeed="12.66" duration="152.00" routeLength="1187.90" waitingTime="19.00" waitingCount="2" stopTime="0.00" timeLoss="59.35" rerouteNo="3" devices="tripinfo_29" vType="Cartype" speedFactor="0.93" vaporized=""/>
    <tripinfo id="30" depart="3294.00" departLane="2NS1_0" departPos="5.10" departSpeed="0.00" departDelay="0.00" arrival="3439.00" arrivalLane="2WO4_0" arrivalPos="196.00" arrivalSpeed="16.05" duration="145.00" routeLength="1195.24" waitingTime="19.00" waitingCount="2" stopTime="0.00" timeLoss="70.91" rerouteNo="3" devices="tripinfo_30" vType="Cartype" speedFactor="1.18" vaporized=""/>
    <tripinfo id="32" depart="3458.00" departLane="2NS1_0" departPos="5.10" departSpeed="0.00" departDelay="0.00" arrival="3555.00" arrivalLane="1SN4_0" arrivalPos="196.00" arrivalSpeed="13.80" duration="97.00" routeLength="877.56" waitingTime="1.00" waitingCount="1" stopTime="0.00" timeLoss="32.47" rerouteNo="2" devices="tripinfo_32" vType="Cartype" speedFactor="1.01" vaporized=""/>
</tripinfos>
