<?xml version="1.0" encoding="UTF-8"?>

<!-- generated on 02/26/20 20:34:00 by Eclipse SUMO Version 1.3.1
<configuration xmlns:xsi="http://www.w3.org/2001/XMLSchema-instance" xsi:noNamespaceSchemaLocation="http://sumo.dlr.de/xsd/sumoConfiguration.xsd">

    <input>
        <net-file value="Data/Cross_3_3.net.xml"/>
        <route-files value="Data/Cross12.rou.xml"/>
        <additional-files value="Data/rerouter.xml,Data/trafficLight.add.xml"/>
    </input>

    <output>
        <tripinfo-output value="tripinfo.xml"/>
    </output>

    <report>
        <log value="logfile.txt"/>
    </report>

    <traci_server>
        <remote-port value="31995"/>
    </traci_server>

</configuration>
-->

<tripinfos xmlns:xsi="http://www.w3.org/2001/XMLSchema-instance" xsi:noNamespaceSchemaLocation="http://sumo.dlr.de/xsd/tripinfo_file.xsd">
    <tripinfo id="0" depart="178.00" departLane="2WO1_0" departPos="5.10" departSpeed="0.00" departDelay="0.00" arrival="347.00" arrivalLane="1SN4_0" arrivalPos="196.00" arrivalSpeed="14.69" duration="169.00" routeLength="1484.84" waitingTime="23.00" waitingCount="2" stopTime="0.00" timeLoss="65.44" rerouteNo="4" devices="tripinfo_0" vType="Cartype" speedFactor="1.06" vaporized=""/>
    <tripinfo id="1" depart="325.00" departLane="2SN1_0" departPos="5.10" departSpeed="0.00" departDelay="0.00" arrival="526.00" arrivalLane="2SN4_0" arrivalPos="196.00" arrivalSpeed="13.02" duration="201.00" routeLength="1196.97" waitingTime="74.00" waitingCount="2" stopTime="0.00" timeLoss="108.69" rerouteNo="3" devices="tripinfo_1" vType="Cartype" speedFactor="0.94" vaporized=""/>
    <tripinfo id="2" depart="409.00" departLane="2WO1_0" departPos="5.10" departSpeed="0.00" departDelay="0.00" arrival="539.00" arrivalLane="3SN4_0" arrivalPos="196.00" arrivalSpeed="13.72" duration="130.00" routeLength="1484.84" waitingTime="0.00" waitingCount="0" stopTime="0.00" timeLoss="20.95" rerouteNo="4" devices="tripinfo_2" vType="Cartype" speedFactor="1.01" vaporized=""/>
    <tripinfo id="4" depart="725.00" departLane="2SN1_0" departPos="5.10" departSpeed="0.00" departDelay="0.00" arrival="830.00" arrivalLane="3OW4_0" arrivalPos="196.00" arrivalSpeed="14.12" duration="105.00" routeLength="894.55" waitingTime="10.00" waitingCount="1" stopTime="0.00" timeLoss="40.81" rerouteNo="2" devices="tripinfo_4" vType="Cartype" speedFactor="1.03" vaporized=""/>
    <tripinfo id="3" depart="534.00" departLane="2NS1_0" departPos="5.10" departSpeed="0.00" departDelay="0.00" arrival="856.00" arrivalLane="2OW4_0" arrivalPos="196.00" arrivalSpeed="14.68" duration="322.00" routeLength="2367.78" waitingTime="77.00" waitingCount="4" stopTime="0.00" timeLoss="161.54" rerouteNo="7" devices="tripinfo_3" vType="Cartype" speedFactor="1.08" vaporized=""/>
    <tripinfo id="5" depart="829.00" departLane="2OW1_0" departPos="5.10" departSpeed="0.00" departDelay="0.00" arrival="971.00" arrivalLane="2NS4_0" arrivalPos="196.00" arrivalSpeed="11.19" duration="142.00" routeLength="1195.24" waitingTime="14.00" waitingCount="1" stopTime="0.00" timeLoss="37.08" rerouteNo="3" devices="tripinfo_5" vType="Cartype" speedFactor="0.83" vaporized=""/>
    <tripinfo id="6" depart="1235.00" departLane="2WO1_0" departPos="5.10" departSpeed="0.00" departDelay="0.00" arrival="1317.00" arrivalLane="1OW4_0" arrivalPos="196.00" arrivalSpeed="14.18" duration="82.00" routeLength="892.82" waitingTime="0.00" waitingCount="0" stopTime="0.00" timeLoss="18.91" rerouteNo="2" devices="tripinfo_6" vType="Cartype" speedFactor="1.05" vaporized=""/>
    <tripinfo id="7" depart="1288.00" departLane="2SN1_0" departPos="5.10" departSpeed="0.00" departDelay="0.00" arrival="1429.00" arrivalLane="2OW4_0" arrivalPos="196.00" arrivalSpeed="12.20" duration="141.00" routeLength="1195.53" waitingTime="21.00" waitingCount="1" stopTime="0.00" timeLoss="42.41" rerouteNo="3" devices="tripinfo_7" vType="Cartype" speedFactor="0.89" vaporized=""/>
    <tripinfo id="8" depart="1439.00" departLane="2SN1_0" departPos="5.10" departSpeed="0.00" departDelay="0.00" arrival="1608.00" arrivalLane="2OW4_0" arrivalPos="196.00" arrivalSpeed="12.85" duration="169.00" routeLength="1195.53" waitingTime="40.00" waitingCount="2" stopTime="0.00" timeLoss="75.55" rerouteNo="3" devices="tripinfo_8" vType="Cartype" speedFactor="0.94" vaporized=""/>
    <tripinfo id="9" depart="1609.00" departLane="2WO1_0" departPos="5.10" departSpeed="0.00" departDelay="0.00" arrival="1776.00" arrivalLane="1NS4_0" arrivalPos="196.00" arrivalSpeed="11.75" duration="167.00" routeLength="886.92" waitingTime="58.00" waitingCount="2" stopTime="0.00" timeLoss="90.85" rerouteNo="2" devices="tripinfo_9" vType="Cartype" speedFactor="0.86" vaporized=""/>
    <tripinfo id="11" depart="1725.00" departLane="2WO1_0" departPos="5.10" departSpeed="0.00" departDelay="0.00" arrival="1868.00" arrivalLane="2NS4_0" arrivalPos="196.00" arrivalSpeed="14.13" duration="143.00" routeLength="1187.61" waitingTime="29.00" waitingCount="1" stopTime="0.00" timeLoss="58.54" rerouteNo="3" devices="tripinfo_11" vType="Cartype" speedFactor="1.03" vaporized=""/>
    <tripinfo id="10" depart="1684.00" departLane="2NS1_0" departPos="5.10" departSpeed="0.00" departDelay="0.00" arrival="1912.00" arrivalLane="2SN4_0" arrivalPos="196.00" arrivalSpeed="15.11" duration="228.00" routeLength="1783.80" waitingTime="53.00" waitingCount="2" stopTime="0.00" timeLoss="107.72" rerouteNo="5" devices="tripinfo_10" vType="Cartype" speedFactor="1.09" vaporized=""/>
    <tripinfo id="12" depart="1907.00" departLane="2NS1_0" departPos="5.10" departSpeed="0.00" departDelay="0.00" arrival="2053.00" arrivalLane="2NS4_0" arrivalPos="196.00" arrivalSpeed="14.31" duration="146.00" routeLength="1196.97" waitingTime="37.00" waitingCount="1" stopTime="0.00" timeLoss="63.58" rerouteNo="3" devices="tripinfo_12" vType="Cartype" speedFactor="1.05" vaporized=""/>
    <tripinfo id="16" depart="2205.00" departLane="2SN1_0" departPos="5.10" departSpeed="0.00" departDelay="0.00" arrival="2292.00" arrivalLane="3WO4_0" arrivalPos="196.00" arrivalSpeed="12.08" duration="87.00" routeLength="886.92" waitingTime="0.00" waitingCount="0" stopTime="0.00" timeLoss="13.07" rerouteNo="2" devices="tripinfo_16" vType="Cartype" speedFactor="0.88" vaporized=""/>
    <tripinfo id="14" depart="2136.00" departLane="2OW1_0" departPos="5.10" departSpeed="0.00" departDelay="0.00" arrival="2312.00" arrivalLane="3OW4_0" arrivalPos="196.00" arrivalSpeed="13.58" duration="176.00" routeLength="1486.86" waitingTime="27.00" waitingCount="1" stopTime="0.00" timeLoss="66.31" rerouteNo="4" devices="tripinfo_14" vType="Cartype" speedFactor="0.99" vaporized=""/>
    <tripinfo id="15" depart="2186.00" departLane="2OW1_0" departPos="5.10" departSpeed="0.00" departDelay="0.00" arrival="2324.00" arrivalLane="3NS4_0" arrivalPos="196.00" arrivalSpeed="12.85" duration="138.00" routeLength="894.55" waitingTime="40.00" waitingCount="1" stopTime="0.00" timeLoss="67.29" rerouteNo="2" devices="tripinfo_15" vType="Cartype" speedFactor="0.93" vaporized=""/>
    <tripinfo id="17" depart="2351.00" departLane="2SN1_0" departPos="5.10" departSpeed="0.00" departDelay="0.00" arrival="2458.00" arrivalLane="3WO4_0" arrivalPos="196.00" arrivalSpeed="12.96" duration="107.00" routeLength="886.92" waitingTime="14.00" waitingCount="1" stopTime="0.00" timeLoss="38.19" rerouteNo="2" devices="tripinfo_17" vType="Cartype" speedFactor="0.94" vaporized=""/>
    <tripinfo id="13" depart="1990.00" departLane="2WO1_0" departPos="5.10" departSpeed="0.00" departDelay="0.00" arrival="2493.00" arrivalLane="1OW4_0" arrivalPos="196.00" arrivalSpeed="15.50" duration="503.00" routeLength="3261.19" waitingTime="169.00" waitingCount="6" stopTime="0.00" timeLoss="290.18" rerouteNo="10" devices="tripinfo_13" vType="Cartype" speedFactor="1.12" vaporized=""/>
    <tripinfo id="18" depart="2387.00" departLane="2SN1_0" departPos="5.10" departSpeed="0.00" departDelay="0.00" arrival="2508.00" arrivalLane="2OW4_0" arrivalPos="196.00" arrivalSpeed="12.78" duration="121.00" routeLength="1195.53" waitingTime="4.00" waitingCount="1" stopTime="0.00" timeLoss="27.82" rerouteNo="3" devices="tripinfo_18" vType="Cartype" speedFactor="0.94" vaporized=""/>
    <tripinfo id="19" depart="2575.00" departLane="2SN1_0" departPos="5.10" departSpeed="0.00" departDelay="0.00" arrival="2740.00" arrivalLane="1WO4_0" arrivalPos="196.00" arrivalSpeed="15.90" duration="165.00" routeLength="1477.21" waitingTime="25.00" waitingCount="2" stopTime="0.00" timeLoss="71.52" rerouteNo="4" devices="tripinfo_19" vType="Cartype" speedFactor="1.16" vaporized=""/>
    <tripinfo id="20" depart="2716.00" departLane="2WO1_0" departPos="5.10" departSpeed="0.00" departDelay="0.00" arrival="2853.00" arrivalLane="1NS4_0" arrivalPos="196.00" arrivalSpeed="13.90" duration="137.00" routeLength="886.92" waitingTime="45.00" waitingCount="1" stopTime="0.00" timeLoss="73.14" rerouteNo="2" devices="tripinfo_20" vType="Cartype" speedFactor="1.02" vaporized=""/>
    <tripinfo id="21" depart="2748.00" departLane="2NS1_0" departPos="5.10" departSpeed="0.00" departDelay="0.00" arrival="2868.00" arrivalLane="1OW4_0" arrivalPos="196.00" arrivalSpeed="13.89" duration="120.00" routeLength="886.92" waitingTime="17.00" waitingCount="2" stopTime="0.00" timeLoss="55.55" rerouteNo="2" devices="tripinfo_21" vType="Cartype" speedFactor="1.01" vaporized=""/>
    <tripinfo id="23" depart="2953.00" departLane="2SN1_0" departPos="5.10" departSpeed="0.00" departDelay="0.00" arrival="3080.00" arrivalLane="3OW4_0" arrivalPos="196.00" arrivalSpeed="12.24" duration="127.00" routeLength="894.55" waitingTime="29.00" waitingCount="1" stopTime="0.00" timeLoss="53.31" rerouteNo="2" devices="tripinfo_23" vType="Cartype" speedFactor="0.89" vaporized=""/>
    <tripinfo id="22" depart="2936.00" departLane="2NS1_0" departPos="5.10" departSpeed="0.00" departDelay="0.00" arrival="3133.00" arrivalLane="3NS4_0" arrivalPos="196.00" arrivalSpeed="13.34" duration="197.00" routeLength="1486.57" waitingTime="42.00" waitingCount="2" stopTime="0.00" timeLoss="85.70" rerouteNo="4" devices="tripinfo_22" vType="Cartype" speedFactor="0.98" vaporized=""/>
    <tripinfo id="24" depart="3004.00" departLane="2OW1_0" departPos="5.10" departSpeed="0.00" departDelay="0.00" arrival="3139.00" arrivalLane="3NS4_0" arrivalPos="196.00" arrivalSpeed="11.25" duration="135.00" routeLength="894.55" waitingTime="31.00" waitingCount="1" stopTime="0.00" timeLoss="55.29" rerouteNo="2" devices="tripinfo_24" vType="Cartype" speedFactor="0.83" vaporized=""/>
    <tripinfo id="25" depart="3078.00" departLane="2SN1_0" departPos="5.10" departSpeed="0.00" departDelay="0.00" arrival="3305.00" arrivalLane="3OW4_0" arrivalPos="196.00" arrivalSpeed="11.92" duration="227.00" routeLength="1485.13" waitingTime="67.00" waitingCount="2" stopTime="0.00" timeLoss="101.43" rerouteNo="4" devices="tripinfo_25" vType="Cartype" speedFactor="0.87" vaporized=""/>
    <tripinfo id="28" depart="3375.00" departLane="2SN1_0" departPos="5.10" departSpeed="0.00" departDelay="0.00" arrival="3452.00" arrivalLane="3OW4_0" arrivalPos="196.00" arrivalSpeed="15.45" duration="77.00" routeLength="894.55" waitingTime="0.00" waitingCount="0" stopTime="0.00" timeLoss="19.24" rerouteNo="2" devices="tripinfo_28" vType="Cartype" speedFactor="1.13" vaporized=""/>
    <tripinfo id="26" depart="3235.00" departLane="2SN1_0" departPos="5.10" departSpeed="0.00" departDelay="0.00" arrival="3499.00" arrivalLane="1SN4_0" arrivalPos="196.00" arrivalSpeed="12.44" duration="264.00" routeLength="1486.57" waitingTime="100.00" waitingCount="3" stopTime="0.00" timeLoss="144.92" rerouteNo="4" devices="tripinfo_26" vType="Cartype" speedFactor="0.92" vaporized=""/>
    <tripinfo id="27" depart="3350.00" departLane="2WO1_0" departPos="5.10" departSpeed="0.00" departDelay="0.00" arrival="3563.00" arrivalLane="2NS4_0" arrivalPos="196.00" arrivalSpeed="12.97" duration="213.00" routeLength="1176.52" waitingTime="84.00" waitingCount="2" stopTime="0.00" timeLoss="121.76" rerouteNo="3" devices="tripinfo_27" vType="Cartype" speedFactor="0.95" vaporized=""/>
</tripinfos>
