<?xml version="1.0" encoding="UTF-8"?>

<!-- generated on 01/21/20 16:40:32 by Eclipse SUMO Version 1.3.1
<configuration xmlns:xsi="http://www.w3.org/2001/XMLSchema-instance" xsi:noNamespaceSchemaLocation="http://sumo.dlr.de/xsd/sumoConfiguration.xsd">

    <input>
        <net-file value="Data/Cross_3_3.net.xml"/>
        <route-files value="Data/Cross12.rou.xml"/>
        <additional-files value="Data/rerouter.xml,Data/trafficLight.add.xml"/>
    </input>

    <output>
        <tripinfo-output value="tripinfo.xml"/>
    </output>

    <report>
        <log value="logfile.txt"/>
    </report>

    <traci_server>
        <remote-port value="7215"/>
    </traci_server>

</configuration>
-->

<tripinfos xmlns:xsi="http://www.w3.org/2001/XMLSchema-instance" xsi:noNamespaceSchemaLocation="http://sumo.dlr.de/xsd/tripinfo_file.xsd">
    <tripinfo id="3" depart="1.00" departLane="2WO1_0" departPos="5.10" departSpeed="0.00" departDelay="0.00" arrival="80.00" arrivalLane="3OW4_0" arrivalPos="196.00" arrivalSpeed="14.92" duration="79.00" routeLength="877.56" waitingTime="0.00" waitingCount="0" stopTime="0.00" timeLoss="19.43" rerouteNo="2" devices="tripinfo_3" vType="Cartype" speedFactor="1.08" vaporized=""/>
    <tripinfo id="17" depart="18.00" departLane="2OW1_0" departPos="5.10" departSpeed="0.00" departDelay="4.00" arrival="117.00" arrivalLane="3NS4_0" arrivalPos="196.00" arrivalSpeed="12.72" duration="99.00" routeLength="894.55" waitingTime="6.00" waitingCount="1" stopTime="0.00" timeLoss="29.90" rerouteNo="2" devices="tripinfo_17" vType="Cartype" speedFactor="0.94" vaporized=""/>
    <tripinfo id="10" depart="8.00" departLane="2OW1_0" departPos="5.10" departSpeed="0.00" departDelay="2.00" arrival="119.00" arrivalLane="3WO4_0" arrivalPos="196.00" arrivalSpeed="14.84" duration="111.00" routeLength="892.82" waitingTime="21.00" waitingCount="1" stopTime="0.00" timeLoss="50.35" rerouteNo="2" devices="tripinfo_10" vType="Cartype" speedFactor="1.09" vaporized=""/>
    <tripinfo id="25" depart="26.00" departLane="2NS1_0" departPos="5.10" departSpeed="0.00" departDelay="7.00" arrival="121.00" arrivalLane="3SN4_0" arrivalPos="196.00" arrivalSpeed="12.09" duration="95.00" routeLength="892.82" waitingTime="0.00" waitingCount="0" stopTime="0.00" timeLoss="19.67" rerouteNo="2" devices="tripinfo_25" vType="Cartype" speedFactor="0.87" vaporized=""/>
    <tripinfo id="4" depart="6.00" departLane="2NS1_0" departPos="5.10" departSpeed="0.00" departDelay="3.00" arrival="123.00" arrivalLane="1WO4_0" arrivalPos="196.00" arrivalSpeed="13.95" duration="117.00" routeLength="894.55" waitingTime="27.00" waitingCount="1" stopTime="0.00" timeLoss="52.90" rerouteNo="2" devices="tripinfo_4" vType="Cartype" speedFactor="1.03" vaporized=""/>
    <tripinfo id="22" depart="33.00" departLane="2OW1_0" departPos="5.10" departSpeed="0.00" departDelay="16.00" arrival="124.00" arrivalLane="3WO4_0" arrivalPos="196.00" arrivalSpeed="13.35" duration="91.00" routeLength="892.82" waitingTime="0.00" waitingCount="0" stopTime="0.00" timeLoss="23.20" rerouteNo="2" devices="tripinfo_22" vType="Cartype" speedFactor="0.98" vaporized=""/>
    <tripinfo id="13" depart="16.00" departLane="2NS1_0" departPos="5.10" departSpeed="0.00" departDelay="6.00" arrival="131.00" arrivalLane="2NS4_0" arrivalPos="196.00" arrivalSpeed="15.47" duration="115.00" routeLength="1196.97" waitingTime="10.00" waitingCount="1" stopTime="0.00" timeLoss="37.49" rerouteNo="3" devices="tripinfo_13" vType="Cartype" speedFactor="1.12" vaporized=""/>
    <tripinfo id="36" depart="41.00" departLane="2WO1_0" departPos="5.10" departSpeed="0.00" departDelay="15.00" arrival="132.00" arrivalLane="1NS4_0" arrivalPos="196.00" arrivalSpeed="13.44" duration="91.00" routeLength="886.92" waitingTime="0.00" waitingCount="0" stopTime="0.00" timeLoss="24.06" rerouteNo="2" devices="tripinfo_36" vType="Cartype" speedFactor="0.97" vaporized=""/>
    <tripinfo id="34" depart="36.00" departLane="2WO1_0" departPos="5.10" departSpeed="0.00" departDelay="12.00" arrival="136.00" arrivalLane="1SN4_0" arrivalPos="196.00" arrivalSpeed="13.76" duration="100.00" routeLength="894.55" waitingTime="4.00" waitingCount="1" stopTime="0.00" timeLoss="34.51" rerouteNo="2" devices="tripinfo_34" vType="Cartype" speedFactor="0.99" vaporized=""/>
    <tripinfo id="14" depart="21.00" departLane="2NS1_0" departPos="5.10" departSpeed="0.00" departDelay="11.00" arrival="140.00" arrivalLane="2NS4_0" arrivalPos="196.00" arrivalSpeed="13.60" duration="119.00" routeLength="1196.97" waitingTime="6.00" waitingCount="1" stopTime="0.00" timeLoss="31.41" rerouteNo="3" devices="tripinfo_14" vType="Cartype" speedFactor="0.99" vaporized=""/>
    <tripinfo id="53" depart="68.00" departLane="2SN1_0" departPos="5.10" departSpeed="0.00" departDelay="33.00" arrival="144.00" arrivalLane="3OW3_0" arrivalPos="92.00" arrivalSpeed="14.99" duration="76.00" routeLength="489.86" waitingTime="8.00" waitingCount="1" stopTime="0.00" timeLoss="42.67" rerouteNo="1" devices="tripinfo_53" vType="Cartype" speedFactor="1.10" vaporized=""/>
    <tripinfo id="0" depart="0.00" departLane="2SN1_0" departPos="5.10" departSpeed="0.00" departDelay="0.00" arrival="145.00" arrivalLane="2OW4_0" arrivalPos="196.00" arrivalSpeed="14.57" duration="145.00" routeLength="1195.53" waitingTime="19.00" waitingCount="2" stopTime="0.00" timeLoss="63.06" rerouteNo="3" devices="tripinfo_0" vType="Cartype" speedFactor="1.06" vaporized=""/>
    <tripinfo id="5" depart="10.00" departLane="2SN1_0" departPos="5.10" departSpeed="0.00" departDelay="7.00" arrival="149.00" arrivalLane="2WO4_0" arrivalPos="196.00" arrivalSpeed="11.41" duration="139.00" routeLength="1187.61" waitingTime="7.00" waitingCount="1" stopTime="0.00" timeLoss="34.80" rerouteNo="3" devices="tripinfo_5" vType="Cartype" speedFactor="0.83" vaporized=""/>
    <tripinfo id="7" depart="3.00" departLane="2OW1_0" departPos="5.10" departSpeed="0.00" departDelay="0.00" arrival="149.00" arrivalLane="1WO4_0" arrivalPos="196.00" arrivalSpeed="11.93" duration="146.00" routeLength="877.56" waitingTime="41.00" waitingCount="2" stopTime="0.00" timeLoss="72.46" rerouteNo="2" devices="tripinfo_7" vType="Cartype" speedFactor="0.89" vaporized=""/>
    <tripinfo id="15" depart="25.00" departLane="2SN1_0" departPos="5.10" departSpeed="0.00" departDelay="15.00" arrival="150.00" arrivalLane="2WO4_0" arrivalPos="196.00" arrivalSpeed="12.31" duration="125.00" routeLength="1187.61" waitingTime="0.00" waitingCount="0" stopTime="0.00" timeLoss="31.59" rerouteNo="3" devices="tripinfo_15" vType="Cartype" speedFactor="0.93" vaporized=""/>
    <tripinfo id="18" depart="23.00" departLane="2OW1_0" departPos="5.10" departSpeed="0.00" departDelay="9.00" arrival="151.00" arrivalLane="3SN4_0" arrivalPos="196.00" arrivalSpeed="12.70" duration="128.00" routeLength="886.92" waitingTime="23.00" waitingCount="2" stopTime="0.00" timeLoss="58.73" rerouteNo="2" devices="tripinfo_18" vType="Cartype" speedFactor="0.94" vaporized=""/>
    <tripinfo id="26" depart="38.00" departLane="2OW1_0" departPos="5.10" departSpeed="0.00" departDelay="19.00" arrival="152.00" arrivalLane="1WO4_0" arrivalPos="196.00" arrivalSpeed="12.72" duration="114.00" routeLength="877.56" waitingTime="16.00" waitingCount="1" stopTime="0.00" timeLoss="43.56" rerouteNo="2" devices="tripinfo_26" vType="Cartype" speedFactor="0.92" vaporized=""/>
    <tripinfo id="31" depart="31.00" departLane="2NS1_0" departPos="5.10" departSpeed="0.00" departDelay="9.00" arrival="159.00" arrivalLane="1OW4_0" arrivalPos="196.00" arrivalSpeed="16.01" duration="128.00" routeLength="886.92" waitingTime="31.00" waitingCount="1" stopTime="0.00" timeLoss="71.37" rerouteNo="2" devices="tripinfo_31" vType="Cartype" speedFactor="1.15" vaporized=""/>
    <tripinfo id="41" depart="42.00" departLane="2NS1_0" departPos="5.10" departSpeed="0.00" departDelay="12.00" arrival="162.00" arrivalLane="1SN4_0" arrivalPos="196.00" arrivalSpeed="12.94" duration="120.00" routeLength="877.56" waitingTime="26.00" waitingCount="1" stopTime="0.00" timeLoss="51.99" rerouteNo="2" devices="tripinfo_41" vType="Cartype" speedFactor="0.96" vaporized=""/>
    <tripinfo id="38" depart="58.00" departLane="2OW1_0" departPos="5.10" departSpeed="0.00" departDelay="31.00" arrival="170.00" arrivalLane="3NS4_0" arrivalPos="196.00" arrivalSpeed="15.19" duration="112.00" routeLength="894.55" waitingTime="23.00" waitingCount="1" stopTime="0.00" timeLoss="52.41" rerouteNo="2" devices="tripinfo_38" vType="Cartype" speedFactor="1.10" vaporized=""/>
    <tripinfo id="2" depart="5.00" departLane="2SN1_0" departPos="5.10" departSpeed="0.00" departDelay="4.00" arrival="171.00" arrivalLane="3SN4_0" arrivalPos="196.00" arrivalSpeed="13.75" duration="166.00" routeLength="1486.57" waitingTime="20.00" waitingCount="2" stopTime="0.00" timeLoss="59.05" rerouteNo="4" devices="tripinfo_2" vType="Cartype" speedFactor="1.01" vaporized=""/>
    <tripinfo id="19" depart="16.00" departLane="2WO1_0" departPos="5.10" departSpeed="0.00" departDelay="1.00" arrival="171.00" arrivalLane="2NS4_0" arrivalPos="196.00" arrivalSpeed="15.87" duration="155.00" routeLength="1176.52" waitingTime="20.00" waitingCount="2" stopTime="0.00" timeLoss="79.70" rerouteNo="3" devices="tripinfo_19" vType="Cartype" speedFactor="1.16" vaporized=""/>
    <tripinfo id="50" depart="63.00" departLane="2NS1_0" departPos="5.10" departSpeed="0.00" departDelay="29.00" arrival="177.00" arrivalLane="3SN4_0" arrivalPos="196.00" arrivalSpeed="11.73" duration="114.00" routeLength="892.82" waitingTime="8.00" waitingCount="1" stopTime="0.00" timeLoss="36.95" rerouteNo="2" devices="tripinfo_50" vType="Cartype" speedFactor="0.85" vaporized=""/>
    <tripinfo id="78" depart="83.00" departLane="2WO1_0" departPos="5.10" departSpeed="0.00" departDelay="30.00" arrival="180.00" arrivalLane="3OW4_0" arrivalPos="196.00" arrivalSpeed="13.97" duration="97.00" routeLength="877.56" waitingTime="2.00" waitingCount="1" stopTime="0.00" timeLoss="32.23" rerouteNo="2" devices="tripinfo_78" vType="Cartype" speedFactor="1.01" vaporized=""/>
    <tripinfo id="28" depart="31.00" departLane="2WO1_0" departPos="5.10" departSpeed="0.00" departDelay="11.00" arrival="183.00" arrivalLane="2NS4_0" arrivalPos="196.00" arrivalSpeed="15.33" duration="152.00" routeLength="1187.61" waitingTime="17.00" waitingCount="3" stopTime="0.00" timeLoss="74.83" rerouteNo="3" devices="tripinfo_28" vType="Cartype" speedFactor="1.13" vaporized=""/>
    <tripinfo id="81" depart="88.00" departLane="2WO1_0" departPos="5.10" departSpeed="0.00" departDelay="33.00" arrival="183.00" arrivalLane="3OW4_0" arrivalPos="196.00" arrivalSpeed="13.80" duration="95.00" routeLength="877.56" waitingTime="0.00" waitingCount="0" stopTime="0.00" timeLoss="29.15" rerouteNo="2" devices="tripinfo_81" vType="Cartype" speedFactor="1.00" vaporized=""/>
    <tripinfo id="48" depart="51.00" departLane="2WO1_0" departPos="5.10" departSpeed="0.00" departDelay="18.00" arrival="188.00" arrivalLane="2NS4_0" arrivalPos="196.00" arrivalSpeed="11.84" duration="137.00" routeLength="1187.61" waitingTime="3.00" waitingCount="1" stopTime="0.00" timeLoss="38.03" rerouteNo="3" devices="tripinfo_48" vType="Cartype" speedFactor="0.88" vaporized=""/>
    <tripinfo id="20" depart="21.00" departLane="2WO1_0" departPos="5.10" departSpeed="0.00" departDelay="5.00" arrival="189.00" arrivalLane="2SN4_0" arrivalPos="196.00" arrivalSpeed="14.00" duration="168.00" routeLength="1195.24" waitingTime="22.00" waitingCount="4" stopTime="0.00" timeLoss="82.52" rerouteNo="3" devices="tripinfo_20" vType="Cartype" speedFactor="1.02" vaporized=""/>
    <tripinfo id="21" depart="28.00" departLane="2OW1_0" departPos="5.10" departSpeed="0.00" departDelay="12.00" arrival="189.00" arrivalLane="2NS4_0" arrivalPos="196.00" arrivalSpeed="13.02" duration="161.00" routeLength="1195.24" waitingTime="17.00" waitingCount="2" stopTime="0.00" timeLoss="75.14" rerouteNo="3" devices="tripinfo_21" vType="Cartype" speedFactor="1.01" vaporized=""/>
    <tripinfo id="12" depart="11.00" departLane="2WO1_0" departPos="5.10" departSpeed="0.00" departDelay="2.00" arrival="190.00" arrivalLane="2WO4_0" arrivalPos="196.00" arrivalSpeed="14.23" duration="179.00" routeLength="1196.97" waitingTime="41.00" waitingCount="3" stopTime="0.00" timeLoss="95.76" rerouteNo="3" devices="tripinfo_12" vType="Cartype" speedFactor="1.05" vaporized=""/>
    <tripinfo id="44" depart="47.00" departLane="2NS1_0" departPos="5.10" departSpeed="0.00" departDelay="14.00" arrival="191.00" arrivalLane="2NS4_0" arrivalPos="196.00" arrivalSpeed="13.91" duration="144.00" routeLength="1196.97" waitingTime="31.00" waitingCount="1" stopTime="0.00" timeLoss="60.96" rerouteNo="3" devices="tripinfo_44" vType="Cartype" speedFactor="1.04" vaporized=""/>
    <tripinfo id="69" depart="89.00" departLane="2SN1_0" departPos="5.10" departSpeed="0.00" departDelay="41.00" arrival="191.00" arrivalLane="2WO4_0" arrivalPos="196.00" arrivalSpeed="13.89" duration="102.00" routeLength="1187.61" waitingTime="0.00" waitingCount="0" stopTime="0.00" timeLoss="17.52" rerouteNo="3" devices="tripinfo_69" vType="Cartype" speedFactor="1.02" vaporized=""/>
    <tripinfo id="52" depart="68.00" departLane="2NS1_0" departPos="5.10" departSpeed="0.00" departDelay="33.00" arrival="193.00" arrivalLane="2NS4_0" arrivalPos="196.00" arrivalSpeed="13.75" duration="125.00" routeLength="1196.97" waitingTime="6.00" waitingCount="1" stopTime="0.00" timeLoss="40.18" rerouteNo="3" devices="tripinfo_52" vType="Cartype" speedFactor="1.02" vaporized=""/>
    <tripinfo id="76" depart="94.00" departLane="2OW1_0" departPos="5.10" departSpeed="0.00" departDelay="42.00" arrival="197.00" arrivalLane="3SN4_0" arrivalPos="196.00" arrivalSpeed="14.28" duration="103.00" routeLength="886.92" waitingTime="10.00" waitingCount="1" stopTime="0.00" timeLoss="39.76" rerouteNo="2" devices="tripinfo_76" vType="Cartype" speedFactor="1.03" vaporized=""/>
    <tripinfo id="42" depart="52.00" departLane="2SN1_0" departPos="5.10" departSpeed="0.00" departDelay="22.00" arrival="198.00" arrivalLane="2OW4_0" arrivalPos="196.00" arrivalSpeed="15.06" duration="146.00" routeLength="1195.53" waitingTime="26.00" waitingCount="2" stopTime="0.00" timeLoss="66.02" rerouteNo="3" devices="tripinfo_42" vType="Cartype" speedFactor="1.09" vaporized=""/>
    <tripinfo id="37" depart="46.00" departLane="2WO1_0" departPos="5.10" departSpeed="0.00" departDelay="20.00" arrival="199.00" arrivalLane="1WO4_0" arrivalPos="196.00" arrivalSpeed="16.13" duration="153.00" routeLength="1486.57" waitingTime="3.00" waitingCount="1" stopTime="0.00" timeLoss="60.85" rerouteNo="4" devices="tripinfo_37" vType="Cartype" speedFactor="1.18" vaporized=""/>
    <tripinfo id="1" depart="1.00" departLane="2NS1_0" departPos="5.10" departSpeed="0.00" departDelay="0.00" arrival="200.00" arrivalLane="3SN4_0" arrivalPos="196.00" arrivalSpeed="12.70" duration="199.00" routeLength="1494.20" waitingTime="29.00" waitingCount="3" stopTime="0.00" timeLoss="82.93" rerouteNo="4" devices="tripinfo_1" vType="Cartype" speedFactor="0.94" vaporized=""/>
    <tripinfo id="47" depart="57.00" departLane="2SN1_0" departPos="5.10" departSpeed="0.00" departDelay="24.00" arrival="207.00" arrivalLane="2OW4_0" arrivalPos="196.00" arrivalSpeed="12.37" duration="150.00" routeLength="1195.53" waitingTime="17.00" waitingCount="2" stopTime="0.00" timeLoss="53.10" rerouteNo="3" devices="tripinfo_47" vType="Cartype" speedFactor="0.90" vaporized=""/>
    <tripinfo id="59" depart="84.00" departLane="2NS1_0" departPos="5.10" departSpeed="0.00" departDelay="47.00" arrival="209.00" arrivalLane="1OW4_0" arrivalPos="196.00" arrivalSpeed="13.44" duration="125.00" routeLength="886.92" waitingTime="24.00" waitingCount="1" stopTime="0.00" timeLoss="58.18" rerouteNo="2" devices="tripinfo_59" vType="Cartype" speedFactor="0.97" vaporized=""/>
    <tripinfo id="70" depart="101.00" departLane="2NS1_0" departPos="5.10" departSpeed="0.00" departDelay="52.00" arrival="213.00" arrivalLane="1SN4_0" arrivalPos="196.00" arrivalSpeed="14.08" duration="112.00" routeLength="877.56" waitingTime="21.00" waitingCount="1" stopTime="0.00" timeLoss="48.40" rerouteNo="2" devices="tripinfo_70" vType="Cartype" speedFactor="1.02" vaporized=""/>
    <tripinfo id="16" depart="13.00" departLane="2OW1_0" departPos="5.10" departSpeed="0.00" departDelay="2.00" arrival="214.00" arrivalLane="1OW4_0" arrivalPos="196.00" arrivalSpeed="12.01" duration="201.00" routeLength="1486.57" waitingTime="31.00" waitingCount="3" stopTime="0.00" timeLoss="76.72" rerouteNo="4" devices="tripinfo_16" vType="Cartype" speedFactor="0.88" vaporized=""/>
    <tripinfo id="66" depart="84.00" departLane="2SN1_0" departPos="5.10" departSpeed="0.00" departDelay="39.00" arrival="214.00" arrivalLane="3OW4_0" arrivalPos="196.00" arrivalSpeed="12.35" duration="130.00" routeLength="894.55" waitingTime="23.00" waitingCount="2" stopTime="0.00" timeLoss="58.17" rerouteNo="2" devices="tripinfo_66" vType="Cartype" speedFactor="0.91" vaporized=""/>
    <tripinfo id="29" depart="48.00" departLane="2OW1_0" departPos="5.10" departSpeed="0.00" departDelay="28.00" arrival="215.00" arrivalLane="3OW3_0" arrivalPos="92.00" arrivalSpeed="12.80" duration="167.00" routeLength="1081.88" waitingTime="43.00" waitingCount="2" stopTime="0.00" timeLoss="81.70" rerouteNo="3" devices="tripinfo_29" vType="Cartype" speedFactor="0.93" vaporized=""/>
    <tripinfo id="45" depart="52.00" departLane="2NS1_0" departPos="5.10" departSpeed="0.00" departDelay="19.00" arrival="216.00" arrivalLane="3OW4_0" arrivalPos="196.00" arrivalSpeed="13.47" duration="164.00" routeLength="1488.30" waitingTime="21.00" waitingCount="1" stopTime="0.00" timeLoss="64.12" rerouteNo="4" devices="tripinfo_45" vType="Cartype" speedFactor="1.09" vaporized=""/>
    <tripinfo id="23" depart="31.00" departLane="2SN1_0" departPos="5.10" departSpeed="0.00" departDelay="13.00" arrival="218.00" arrivalLane="3NS4_0" arrivalPos="196.00" arrivalSpeed="12.19" duration="187.00" routeLength="1478.94" waitingTime="33.00" waitingCount="1" stopTime="0.00" timeLoss="64.92" rerouteNo="4" devices="tripinfo_23" vType="Cartype" speedFactor="0.89" vaporized=""/>
    <tripinfo id="83" depart="109.00" departLane="2OW1_0" departPos="5.10" departSpeed="0.00" departDelay="53.00" arrival="219.00" arrivalLane="3WO4_0" arrivalPos="196.00" arrivalSpeed="13.28" duration="110.00" routeLength="892.82" waitingTime="15.00" waitingCount="1" stopTime="0.00" timeLoss="41.43" rerouteNo="2" devices="tripinfo_83" vType="Cartype" speedFactor="0.97" vaporized=""/>
    <tripinfo id="73" depart="111.00" departLane="2NS1_0" departPos="5.10" departSpeed="0.00" departDelay="60.00" arrival="221.00" arrivalLane="3SN4_0" arrivalPos="196.00" arrivalSpeed="14.56" duration="110.00" routeLength="892.82" waitingTime="19.00" waitingCount="1" stopTime="0.00" timeLoss="47.27" rerouteNo="2" devices="tripinfo_73" vType="Cartype" speedFactor="1.06" vaporized=""/>
    <tripinfo id="106" depart="141.00" departLane="2NS1_0" departPos="5.10" departSpeed="0.00" departDelay="60.00" arrival="225.00" arrivalLane="3SN4_0" arrivalPos="196.00" arrivalSpeed="13.86" duration="84.00" routeLength="892.82" waitingTime="0.00" waitingCount="0" stopTime="0.00" timeLoss="18.70" rerouteNo="2" devices="tripinfo_106" vType="Cartype" speedFactor="1.01" vaporized=""/>
    <tripinfo id="39" depart="64.00" departLane="2OW1_0" departPos="5.10" departSpeed="0.00" departDelay="36.00" arrival="230.00" arrivalLane="2NS4_0" arrivalPos="196.00" arrivalSpeed="12.42" duration="166.00" routeLength="1184.15" waitingTime="26.00" waitingCount="3" stopTime="0.00" timeLoss="68.96" rerouteNo="3" devices="tripinfo_39" vType="Cartype" speedFactor="0.90" vaporized=""/>
    <tripinfo id="57" depart="73.00" departLane="2NS1_0" departPos="5.10" departSpeed="0.00" departDelay="36.00" arrival="232.00" arrivalLane="2OW4_0" arrivalPos="196.00" arrivalSpeed="15.69" duration="159.00" routeLength="1187.90" waitingTime="35.00" waitingCount="2" stopTime="0.00" timeLoss="83.19" rerouteNo="3" devices="tripinfo_57" vType="Cartype" speedFactor="1.14" vaporized=""/>
    <tripinfo id="54" depart="56.00" departLane="2WO1_0" departPos="5.10" departSpeed="0.00" departDelay="21.00" arrival="235.00" arrivalLane="2NS4_0" arrivalPos="196.00" arrivalSpeed="13.71" duration="179.00" routeLength="1187.61" waitingTime="38.00" waitingCount="3" stopTime="0.00" timeLoss="92.22" rerouteNo="3" devices="tripinfo_54" vType="Cartype" speedFactor="1.00" vaporized=""/>
    <tripinfo id="61" depart="90.00" departLane="2NS1_0" departPos="5.10" departSpeed="0.00" departDelay="48.00" arrival="236.00" arrivalLane="2OW4_0" arrivalPos="196.00" arrivalSpeed="15.39" duration="146.00" routeLength="1187.90" waitingTime="30.00" waitingCount="1" stopTime="0.00" timeLoss="68.32" rerouteNo="3" devices="tripinfo_61" vType="Cartype" speedFactor="1.12" vaporized=""/>
    <tripinfo id="8" depart="15.00" departLane="2SN1_0" departPos="5.10" departSpeed="0.00" departDelay="9.00" arrival="237.00" arrivalLane="1NS4_0" arrivalPos="196.00" arrivalSpeed="12.84" duration="222.00" routeLength="1494.49" waitingTime="42.00" waitingCount="3" stopTime="0.00" timeLoss="104.66" rerouteNo="4" devices="tripinfo_8" vType="Cartype" speedFactor="0.94" vaporized=""/>
    <tripinfo id="86" depart="98.00" departLane="2WO1_0" departPos="5.10" departSpeed="0.00" departDelay="40.00" arrival="237.00" arrivalLane="3OW4_0" arrivalPos="196.00" arrivalSpeed="13.66" duration="139.00" routeLength="877.56" waitingTime="33.00" waitingCount="2" stopTime="0.00" timeLoss="74.17" rerouteNo="2" devices="tripinfo_86" vType="Cartype" speedFactor="1.00" vaporized=""/>
    <tripinfo id="56" depart="61.00" departLane="2WO1_0" departPos="5.10" departSpeed="0.00" departDelay="25.00" arrival="238.00" arrivalLane="2NS4_0" arrivalPos="196.00" arrivalSpeed="12.17" duration="177.00" routeLength="1187.61" waitingTime="30.00" waitingCount="3" stopTime="0.00" timeLoss="80.65" rerouteNo="3" devices="tripinfo_56" vType="Cartype" speedFactor="0.90" vaporized=""/>
    <tripinfo id="116" depart="139.00" departLane="2WO1_0" departPos="5.10" departSpeed="0.00" departDelay="53.00" arrival="238.00" arrivalLane="1OW4_0" arrivalPos="196.00" arrivalSpeed="16.02" duration="99.00" routeLength="892.82" waitingTime="7.00" waitingCount="1" stopTime="0.00" timeLoss="42.85" rerouteNo="2" devices="tripinfo_116" vType="Cartype" speedFactor="1.18" vaporized=""/>
    <tripinfo id="9" depart="20.00" departLane="2SN1_0" departPos="5.10" departSpeed="0.00" departDelay="14.00" arrival="239.00" arrivalLane="1SN4_0" arrivalPos="196.00" arrivalSpeed="11.71" duration="219.00" routeLength="1486.86" waitingTime="50.00" waitingCount="2" stopTime="0.00" timeLoss="92.14" rerouteNo="4" devices="tripinfo_9" vType="Cartype" speedFactor="0.86" vaporized=""/>
    <tripinfo id="58" depart="79.00" departLane="2NS1_0" departPos="5.10" departSpeed="0.00" departDelay="42.00" arrival="239.00" arrivalLane="2NS4_0" arrivalPos="196.00" arrivalSpeed="12.83" duration="160.00" routeLength="1196.97" waitingTime="31.00" waitingCount="1" stopTime="0.00" timeLoss="75.76" rerouteNo="3" devices="tripinfo_58" vType="Cartype" speedFactor="1.02" vaporized=""/>
    <tripinfo id="84" depart="93.00" departLane="2WO1_0" departPos="5.10" departSpeed="0.00" departDelay="36.00" arrival="239.00" arrivalLane="2SN4_0" arrivalPos="196.00" arrivalSpeed="15.70" duration="146.00" routeLength="1195.24" waitingTime="9.00" waitingCount="1" stopTime="0.00" timeLoss="69.96" rerouteNo="3" devices="tripinfo_84" vType="Cartype" speedFactor="1.15" vaporized=""/>
    <tripinfo id="119" depart="144.00" departLane="2WO1_0" departPos="5.10" departSpeed="0.00" departDelay="57.00" arrival="239.00" arrivalLane="3OW4_0" arrivalPos="196.00" arrivalSpeed="14.52" duration="95.00" routeLength="877.56" waitingTime="5.00" waitingCount="1" stopTime="0.00" timeLoss="34.65" rerouteNo="2" devices="tripinfo_119" vType="Cartype" speedFactor="1.07" vaporized=""/>
    <tripinfo id="27" depart="43.00" departLane="2OW1_0" departPos="5.10" departSpeed="0.00" departDelay="24.00" arrival="240.00" arrivalLane="1SN4_0" arrivalPos="196.00" arrivalSpeed="12.35" duration="197.00" routeLength="1488.59" waitingTime="28.00" waitingCount="3" stopTime="0.00" timeLoss="83.22" rerouteNo="4" devices="tripinfo_27" vType="Cartype" speedFactor="0.95" vaporized=""/>
    <tripinfo id="104" depart="118.00" departLane="2WO1_0" departPos="5.10" departSpeed="0.00" departDelay="40.00" arrival="242.00" arrivalLane="1SN4_0" arrivalPos="196.00" arrivalSpeed="12.02" duration="124.00" routeLength="894.55" waitingTime="10.00" waitingCount="2" stopTime="0.00" timeLoss="50.79" rerouteNo="2" devices="tripinfo_104" vType="Cartype" speedFactor="0.89" vaporized=""/>
    <tripinfo id="24" depart="26.00" departLane="2WO1_0" departPos="5.10" departSpeed="0.00" departDelay="8.00" arrival="243.00" arrivalLane="2WO4_0" arrivalPos="196.00" arrivalSpeed="11.29" duration="217.00" routeLength="1776.17" waitingTime="13.00" waitingCount="3" stopTime="0.00" timeLoss="58.12" rerouteNo="5" devices="tripinfo_24" vType="Cartype" speedFactor="0.83" vaporized=""/>
    <tripinfo id="75" depart="94.00" departLane="2SN1_0" departPos="5.10" departSpeed="0.00" departDelay="42.00" arrival="243.00" arrivalLane="3WO4_0" arrivalPos="196.00" arrivalSpeed="13.60" duration="149.00" routeLength="886.92" waitingTime="45.00" waitingCount="2" stopTime="0.00" timeLoss="83.20" rerouteNo="2" devices="tripinfo_75" vType="Cartype" speedFactor="0.98" vaporized=""/>
    <tripinfo id="80" depart="121.00" departLane="2NS1_0" departPos="5.10" departSpeed="0.00" departDelay="66.00" arrival="244.00" arrivalLane="2WO4_0" arrivalPos="196.00" arrivalSpeed="11.41" duration="123.00" routeLength="1195.24" waitingTime="6.00" waitingCount="1" stopTime="0.00" timeLoss="39.07" rerouteNo="3" devices="tripinfo_80" vType="Cartype" speedFactor="1.03" vaporized=""/>
    <tripinfo id="79" depart="104.00" departLane="2OW1_0" departPos="5.10" departSpeed="0.00" departDelay="51.00" arrival="245.00" arrivalLane="1WO4_0" arrivalPos="196.00" arrivalSpeed="14.79" duration="141.00" routeLength="877.56" waitingTime="40.00" waitingCount="2" stopTime="0.00" timeLoss="81.37" rerouteNo="2" devices="tripinfo_79" vType="Cartype" speedFactor="1.09" vaporized=""/>
    <tripinfo id="85" depart="104.00" departLane="2SN1_0" departPos="5.10" departSpeed="0.00" departDelay="46.00" arrival="245.00" arrivalLane="3WO4_0" arrivalPos="196.00" arrivalSpeed="13.53" duration="141.00" routeLength="886.92" waitingTime="38.00" waitingCount="2" stopTime="0.00" timeLoss="74.56" rerouteNo="2" devices="tripinfo_85" vType="Cartype" speedFactor="0.98" vaporized=""/>
    <tripinfo id="60" depart="67.00" departLane="2WO1_0" departPos="5.10" departSpeed="0.00" departDelay="30.00" arrival="247.00" arrivalLane="3WO4_0" arrivalPos="196.00" arrivalSpeed="14.59" duration="180.00" routeLength="1486.57" waitingTime="16.00" waitingCount="2" stopTime="0.00" timeLoss="79.38" rerouteNo="4" devices="tripinfo_60" vType="Cartype" speedFactor="1.08" vaporized=""/>
    <tripinfo id="32" depart="36.00" departLane="2SN1_0" departPos="5.10" departSpeed="0.00" departDelay="13.00" arrival="248.00" arrivalLane="3SN4_0" arrivalPos="196.00" arrivalSpeed="13.69" duration="212.00" routeLength="1486.57" waitingTime="45.00" waitingCount="3" stopTime="0.00" timeLoss="103.66" rerouteNo="4" devices="tripinfo_32" vType="Cartype" speedFactor="1.01" vaporized=""/>
    <tripinfo id="35" depart="46.00" departLane="2SN1_0" departPos="5.10" departSpeed="0.00" departDelay="21.00" arrival="248.00" arrivalLane="2OW4_0" arrivalPos="196.00" arrivalSpeed="14.08" duration="202.00" routeLength="1183.74" waitingTime="66.00" waitingCount="3" stopTime="0.00" timeLoss="116.53" rerouteNo="3" devices="tripinfo_35" vType="Cartype" speedFactor="1.02" vaporized=""/>
    <tripinfo id="33" depart="41.00" departLane="2SN1_0" departPos="5.10" departSpeed="0.00" departDelay="17.00" arrival="250.00" arrivalLane="3SN4_0" arrivalPos="196.00" arrivalSpeed="15.07" duration="209.00" routeLength="1486.57" waitingTime="42.00" waitingCount="3" stopTime="0.00" timeLoss="115.88" rerouteNo="4" devices="tripinfo_33" vType="Cartype" speedFactor="1.17" vaporized=""/>
    <tripinfo id="74" depart="116.00" departLane="2NS1_0" departPos="5.10" departSpeed="0.00" departDelay="64.00" arrival="259.00" arrivalLane="1OW4_0" arrivalPos="196.00" arrivalSpeed="12.90" duration="143.00" routeLength="886.92" waitingTime="37.00" waitingCount="2" stopTime="0.00" timeLoss="75.27" rerouteNo="2" devices="tripinfo_74" vType="Cartype" speedFactor="0.96" vaporized=""/>
    <tripinfo id="100" depart="139.00" departLane="2SN1_0" departPos="5.10" departSpeed="0.00" departDelay="68.00" arrival="260.00" arrivalLane="3OW4_0" arrivalPos="196.00" arrivalSpeed="14.62" duration="121.00" routeLength="894.55" waitingTime="25.00" waitingCount="1" stopTime="0.00" timeLoss="59.01" rerouteNo="2" devices="tripinfo_100" vType="Cartype" speedFactor="1.07" vaporized=""/>
    <tripinfo id="170" depart="175.00" departLane="2OW1_0" departPos="5.10" departSpeed="0.00" departDelay="60.00" arrival="265.00" arrivalLane="3WO4_0" arrivalPos="196.00" arrivalSpeed="14.75" duration="90.00" routeLength="892.82" waitingTime="0.00" waitingCount="0" stopTime="0.00" timeLoss="28.59" rerouteNo="2" devices="tripinfo_170" vType="Cartype" speedFactor="1.09" vaporized=""/>
    <tripinfo id="87" depart="115.00" departLane="2OW1_0" departPos="5.10" departSpeed="0.00" departDelay="57.00" arrival="266.00" arrivalLane="3NS4_0" arrivalPos="196.00" arrivalSpeed="14.36" duration="151.00" routeLength="894.55" waitingTime="45.00" waitingCount="3" stopTime="0.00" timeLoss="88.22" rerouteNo="2" devices="tripinfo_87" vType="Cartype" speedFactor="1.04" vaporized=""/>